LAMMPS (16 Feb 2016)
Reading data file ...
  orthogonal box = (3.03355 2.97955 3.02605) to (31.9915 31.9375 31.984)
  2 by 2 by 3 MPI processor grid
  reading atoms ...
  2400 atoms
  reading velocities ...
  2400 velocities
  scanning bonds ...
  2 = max bonds/atom
  scanning angles ...
  1 = max angles/atom
  reading bonds ...
  1600 bonds
  reading angles ...
  800 angles
Finding 1-2 1-3 1-4 neighbors ...
 Special bond factors lj:   0          0          0         
 Special bond factors coul: 0          0          0         
  2 = max # of 1-2 neighbors
  1 = max # of 1-3 neighbors
  1 = max # of 1-4 neighbors
  2 = max # of special neighbors
Setting atom values ...
  1600 settings made for charge
Setting atom values ...
  800 settings made for charge
800 atoms in group O_Water
1600 atoms in group H_Water
Finding SHAKE clusters ...
  0 = # of size 2 clusters
  0 = # of size 3 clusters
  0 = # of size 4 clusters
  800 = # of frozen angles
PPPM initialization ...
  G vector (1/distance) = 0.336942
  grid = 40 40 40
  stencil order = 5
  estimated absolute RMS force accuracy = 0.000391029
  estimated relative force accuracy = 1.17757e-06
  using double precision FFTs
  3d grid and FFT values/proc = 15309 6400
Neighbor list info ...
  1 neighbor list requests
  update every 1 steps, delay 0 steps, check yes
  max neighbors/atom: 2000, page size: 100000
  master list distance cutoff = 12
  ghost atom cutoff = 12
  binsize = 6, bins = 5 5 5
Setting up Verlet run ...
  Unit style  : real
  Current step: 0
  Time step   : 0.0001
Memory usage per processor = 8.02302 Mbytes
Step Temp E_pair E_mol TotEng Press 
       0       303.15   -8871.4729            0   -7426.5645    6118817.2 
   10000    202.72735   -8870.1927            0   -7903.9303   -1386.0097 
Loop time of 54.1311 on 12 procs for 10000 steps with 2400 atoms

Performance: 0.002 ns/day, 15036.430 hours/ns, 184.737 timesteps/s
100.0% CPU use with 12 MPI tasks x no OpenMP threads

MPI task timing breakdown:
Section |  min time  |  avg time  |  max time  |%varavg| %total
---------------------------------------------------------------
Pair    | 17.885     | 20.53      | 22.847     |  35.9 | 37.93
Bond    | 0.0026839  | 0.0041277  | 0.0067894  |   1.7 |  0.01
Kspace  | 27.312     | 29.568     | 32.137     |  29.0 | 54.62
Neigh   | 0          | 0          | 0          |   0.0 |  0.00
Comm    | 2.1178     | 2.1973     | 2.2589     |   3.1 |  4.06
Output  | 4.077e-05  | 4.3233e-05 | 6.7949e-05 |   0.1 |  0.00
Modify  | 1.6779     | 1.6989     | 1.7366     |   1.6 |  3.14
Other   |            | 0.133      |            |       |  0.25

Nlocal:    200 ave 218 max 186 min
Histogram: 2 1 2 2 1 0 0 1 1 2
Nghost:    4738.17 ave 4779 max 4680 min
Histogram: 2 0 0 1 0 1 4 1 0 3
Neighs:    71490.2 ave 79894 max 61594 min
Histogram: 1 1 1 2 0 2 1 1 1 2

Total # of neighbors = 857883
Ave neighs/atom = 357.451
Ave special neighs/atom = 2
Neighbor list builds = 0
Dangerous builds = 0
PPPM initialization ...
  G vector (1/distance) = 0.336942
  grid = 40 40 40
  stencil order = 5
  estimated absolute RMS force accuracy = 0.000391029
  estimated relative force accuracy = 1.17757e-06
  using double precision FFTs
  3d grid and FFT values/proc = 15309 6400
Setting up Verlet run ...
  Unit style  : real
  Current step: 10000
  Time step   : 0.0002
Memory usage per processor = 8.02302 Mbytes
Step Temp E_pair E_mol TotEng Press 
   10000    202.72735   -8870.1927            0   -7903.9303   -1386.0122 
   20000    210.57293     -8883.73            0   -7880.0731   -1421.5368 
Loop time of 54.1522 on 12 procs for 10000 steps with 2400 atoms

Performance: 0.003 ns/day, 7521.141 hours/ns, 184.665 timesteps/s
100.0% CPU use with 12 MPI tasks x no OpenMP threads

MPI task timing breakdown:
Section |  min time  |  avg time  |  max time  |%varavg| %total
---------------------------------------------------------------
Pair    | 17.81      | 20.485     | 22.847     |  35.5 | 37.83
Bond    | 0.0025907  | 0.0038817  | 0.0066266  |   1.6 |  0.01
Kspace  | 27.374     | 29.656     | 32.242     |  28.7 | 54.76
Neigh   | 0          | 0          | 0          |   0.0 |  0.00
Comm    | 2.1109     | 2.1829     | 2.2653     |   2.9 |  4.03
Output  | 4.8876e-05 | 5.3068e-05 | 7.4863e-05 |   0.1 |  0.00
Modify  | 1.672      | 1.6917     | 1.7245     |   1.4 |  3.12
Other   |            | 0.1327     |            |       |  0.25

Nlocal:    200 ave 217 max 186 min
Histogram: 2 1 2 2 1 0 0 1 1 2
Nghost:    4737.42 ave 4777 max 4679 min
Histogram: 2 0 0 1 0 0 4 2 0 3
Neighs:    71491 ave 79875 max 61565 min
Histogram: 1 0 2 1 1 2 1 1 1 2

Total # of neighbors = 857892
Ave neighs/atom = 357.455
Ave special neighs/atom = 2
Neighbor list builds = 0
Dangerous builds = 0
PPPM initialization ...
  G vector (1/distance) = 0.336942
  grid = 40 40 40
  stencil order = 5
  estimated absolute RMS force accuracy = 0.000391029
  estimated relative force accuracy = 1.17757e-06
  using double precision FFTs
  3d grid and FFT values/proc = 15309 6400
Setting up Verlet run ...
  Unit style  : real
  Current step: 20000
  Time step   : 0.0005
Memory usage per processor = 8.02302 Mbytes
Step Temp E_pair E_mol TotEng Press 
   20000    210.57293     -8883.73            0   -7880.0731   -1421.5433 
   30000    244.32195   -8974.1423            0   -7809.6268   -1748.0559 
Loop time of 53.8839 on 12 procs for 10000 steps with 2400 atoms

Performance: 0.008 ns/day, 2993.549 hours/ns, 185.584 timesteps/s
100.0% CPU use with 12 MPI tasks x no OpenMP threads

MPI task timing breakdown:
Section |  min time  |  avg time  |  max time  |%varavg| %total
---------------------------------------------------------------
Pair    | 17.868     | 20.492     | 22.643     |  35.1 | 38.03
Bond    | 0.0026608  | 0.0039993  | 0.0069616  |   1.8 |  0.01
Kspace  | 27.232     | 29.362     | 31.83      |  28.5 | 54.49
Neigh   | 0          | 0          | 0          |   0.0 |  0.00
Comm    | 2.1177     | 2.1961     | 2.3151     |   3.7 |  4.08
Output  | 4.1008e-05 | 4.367e-05  | 7.1049e-05 |   0.1 |  0.00
Modify  | 1.6777     | 1.6983     | 1.7301     |   1.4 |  3.15
Other   |            | 0.1312     |            |       |  0.24

Nlocal:    200 ave 217 max 186 min
Histogram: 2 1 0 4 1 0 0 2 0 2
Nghost:    4735.25 ave 4773 max 4678 min
Histogram: 2 0 1 0 0 0 4 2 0 3
Neighs:    71490.2 ave 79123 max 61593 min
Histogram: 1 0 2 2 0 2 0 1 2 2

Total # of neighbors = 857882
Ave neighs/atom = 357.451
Ave special neighs/atom = 2
Neighbor list builds = 0
Dangerous builds = 0
PPPM initialization ...
  G vector (1/distance) = 0.336942
  grid = 40 40 40
  stencil order = 5
  estimated absolute RMS force accuracy = 0.000391029
  estimated relative force accuracy = 1.17757e-06
  using double precision FFTs
  3d grid and FFT values/proc = 15309 6400
Setting up Verlet run ...
  Unit style  : real
  Current step: 30000
  Time step   : 0.001
Memory usage per processor = 8.02302 Mbytes
Step Temp E_pair E_mol TotEng Press 
   30000    244.32195   -8974.1423            0   -7809.6268   -1748.0667 
   40000    283.99456    -9000.286            0   -7646.6783   -1775.3739 
Loop time of 54.0589 on 12 procs for 10000 steps with 2400 atoms

Performance: 0.016 ns/day, 1501.636 hours/ns, 184.983 timesteps/s
100.0% CPU use with 12 MPI tasks x no OpenMP threads

MPI task timing breakdown:
Section |  min time  |  avg time  |  max time  |%varavg| %total
---------------------------------------------------------------
Pair    | 17.931     | 20.494     | 22.96      |  35.2 | 37.91
Bond    | 0.0024419  | 0.0037782  | 0.0061066  |   1.5 |  0.01
Kspace  | 27.168     | 29.545     | 32.013     |  28.4 | 54.65
Neigh   | 0          | 0          | 0          |   0.0 |  0.00
Comm    | 2.1134     | 2.1983     | 2.2766     |   3.4 |  4.07
Output  | 4.0054e-05 | 4.3253e-05 | 6.8903e-05 |   0.1 |  0.00
Modify  | 1.6709     | 1.6882     | 1.7143     |   1.2 |  3.12
Other   |            | 0.1301     |            |       |  0.24

Nlocal:    200 ave 217 max 187 min
Histogram: 2 1 2 2 0 1 0 1 2 1
Nghost:    4740.08 ave 4779 max 4679 min
Histogram: 1 1 1 0 0 0 4 2 0 3
Neighs:    71495.9 ave 79940 max 61766 min
Histogram: 1 1 1 2 1 0 1 3 0 2

Total # of neighbors = 857951
Ave neighs/atom = 357.48
Ave special neighs/atom = 2
Neighbor list builds = 0
Dangerous builds = 0
PPPM initialization ...
  G vector (1/distance) = 0.336942
  grid = 40 40 40
  stencil order = 5
  estimated absolute RMS force accuracy = 0.000391029
  estimated relative force accuracy = 1.17757e-06
  using double precision FFTs
  3d grid and FFT values/proc = 15309 6400
Setting up Verlet run ...
  Unit style  : real
  Current step: 40000
  Time step   : 0.002
Memory usage per processor = 8.02302 Mbytes
Step Temp E_pair E_mol TotEng Press 
   40000    283.99456    -9000.286            0   -7646.6783   -1775.3549 
   50000    296.97739   -8780.5442            0   -7365.0563    -412.7082 
Loop time of 54.4122 on 12 procs for 10000 steps with 2400 atoms

Performance: 0.032 ns/day, 755.725 hours/ns, 183.782 timesteps/s
100.0% CPU use with 12 MPI tasks x no OpenMP threads

MPI task timing breakdown:
Section |  min time  |  avg time  |  max time  |%varavg| %total
---------------------------------------------------------------
Pair    | 18.251     | 20.482     | 22.824     |  34.8 | 37.64
Bond    | 0.0026784  | 0.0038685  | 0.0060163  |   1.5 |  0.01
Kspace  | 27.617     | 29.909     | 32.08      |  27.7 | 54.97
Neigh   | 0          | 0          | 0          |   0.0 |  0.00
Comm    | 2.1094     | 2.1934     | 2.3054     |   3.9 |  4.03
Output  | 4.0054e-05 | 4.2458e-05 | 6.6996e-05 |   0.1 |  0.00
Modify  | 1.6683     | 1.6924     | 1.7342     |   1.9 |  3.11
Other   |            | 0.1315     |            |       |  0.24

Nlocal:    200 ave 216 max 183 min
Histogram: 1 0 2 3 1 0 0 2 2 1
Nghost:    4747.17 ave 4787 max 4680 min
Histogram: 1 1 0 1 0 1 4 1 0 3
Neighs:    71503.1 ave 79235 max 63123 min
Histogram: 2 0 3 0 1 0 1 3 0 2

Total # of neighbors = 858037
Ave neighs/atom = 357.515
Ave special neighs/atom = 2
Neighbor list builds = 0
Dangerous builds = 0
PPPM initialization ...
  G vector (1/distance) = 0.336942
  grid = 40 40 40
  stencil order = 5
  estimated absolute RMS force accuracy = 0.000391029
  estimated relative force accuracy = 1.17757e-06
  using double precision FFTs
  3d grid and FFT values/proc = 15309 6400
Setting up Verlet run ...
  Unit style  : real
  Current step: 50000
  Time step   : 0.005
Memory usage per processor = 8.02302 Mbytes
Step Temp E_pair E_mol TotEng Press 
   50000    296.97739   -8780.5442            0   -7365.0563   -412.70003 
   60000    298.06971   -8841.1735            0   -7420.4793   -705.85668 
Loop time of 54.2801 on 12 procs for 10000 steps with 2400 atoms

Performance: 0.080 ns/day, 301.556 hours/ns, 184.229 timesteps/s
100.0% CPU use with 12 MPI tasks x no OpenMP threads

MPI task timing breakdown:
Section |  min time  |  avg time  |  max time  |%varavg| %total
---------------------------------------------------------------
Pair    | 18.301     | 20.51      | 22.908     |  34.1 | 37.79
Bond    | 0.0026207  | 0.0040844  | 0.0071385  |   2.2 |  0.01
Kspace  | 27.417     | 29.753     | 31.851     |  27.4 | 54.81
Neigh   | 0.0073321  | 0.0073459  | 0.0073621  |   0.0 |  0.01
Comm    | 2.1245     | 2.1846     | 2.2758     |   3.3 |  4.02
Output  | 4.1008e-05 | 4.3492e-05 | 6.8903e-05 |   0.1 |  0.00
Modify  | 1.6692     | 1.6892     | 1.7254     |   1.6 |  3.11
Other   |            | 0.1314     |            |       |  0.24

Nlocal:    200 ave 215 max 181 min
Histogram: 1 0 1 4 1 0 0 0 2 3
Nghost:    4721.17 ave 4761 max 4663 min
Histogram: 2 0 0 0 0 2 3 3 0 2
Neighs:    71490.6 ave 80213 max 63813 min
Histogram: 2 2 1 1 0 1 2 1 0 2

Total # of neighbors = 857887
Ave neighs/atom = 357.453
Ave special neighs/atom = 2
Neighbor list builds = 2
Dangerous builds = 0
PPPM initialization ...
  G vector (1/distance) = 0.336942
  grid = 40 40 40
  stencil order = 5
  estimated absolute RMS force accuracy = 0.000391029
  estimated relative force accuracy = 1.17757e-06
  using double precision FFTs
  3d grid and FFT values/proc = 15309 6400
Setting up Verlet run ...
  Unit style  : real
  Current step: 60000
  Time step   : 0.01
Memory usage per processor = 8.02302 Mbytes
Step Temp E_pair E_mol TotEng Press 
   60000    298.06971   -8841.1735            0   -7420.4793   -705.80676 
   70000    302.87719   -8803.6405            0   -7360.0323   -658.84728 
Loop time of 54.146 on 12 procs for 10000 steps with 2400 atoms

Performance: 0.160 ns/day, 150.406 hours/ns, 184.686 timesteps/s
100.0% CPU use with 12 MPI tasks x no OpenMP threads

MPI task timing breakdown:
Section |  min time  |  avg time  |  max time  |%varavg| %total
---------------------------------------------------------------
Pair    | 18.419     | 20.477     | 22.915     |  33.4 | 37.82
Bond    | 0.0023789  | 0.0039213  | 0.0053823  |   1.4 |  0.01
Kspace  | 27.216     | 29.599     | 31.579     |  26.9 | 54.67
Neigh   | 0.014684   | 0.014726   | 0.014763   |   0.0 |  0.03
Comm    | 2.1132     | 2.1959     | 2.2739     |   3.5 |  4.06
Output  | 4.2915e-05 | 4.526e-05  | 7.1049e-05 |   0.1 |  0.00
Modify  | 1.7041     | 1.7238     | 1.753      |   1.3 |  3.18
Other   |            | 0.1316     |            |       |  0.24

Nlocal:    200 ave 217 max 180 min
Histogram: 1 1 1 1 1 1 1 2 1 2
Nghost:    4734 ave 4803 max 4633 min
Histogram: 1 0 1 0 1 3 1 2 2 1
Neighs:    71493.8 ave 80857 max 63601 min
Histogram: 2 1 0 3 1 0 1 3 0 1

Total # of neighbors = 857926
Ave neighs/atom = 357.469
Ave special neighs/atom = 2
Neighbor list builds = 4
Dangerous builds = 0
PPPM initialization ...
  G vector (1/distance) = 0.336942
  grid = 40 40 40
  stencil order = 5
  estimated absolute RMS force accuracy = 0.000391029
  estimated relative force accuracy = 1.17757e-06
  using double precision FFTs
  3d grid and FFT values/proc = 15309 6400
Setting up Verlet run ...
  Unit style  : real
  Current step: 70000
  Time step   : 0.02
Memory usage per processor = 8.02302 Mbytes
Step Temp E_pair E_mol TotEng Press 
   70000    302.87719   -8803.6405            0   -7360.0323   -658.85017 
   80000    302.64193   -8818.3743            0   -7375.8874   -171.68165 
Loop time of 54.1988 on 12 procs for 10000 steps with 2400 atoms

Performance: 0.319 ns/day, 75.276 hours/ns, 184.506 timesteps/s
100.0% CPU use with 12 MPI tasks x no OpenMP threads

MPI task timing breakdown:
Section |  min time  |  avg time  |  max time  |%varavg| %total
---------------------------------------------------------------
Pair    | 18.001     | 20.498     | 23.039     |  32.7 | 37.82
Bond    | 0.0024681  | 0.0039033  | 0.0058048  |   1.4 |  0.01
Kspace  | 27.139     | 29.614     | 32.103     |  26.5 | 54.64
Neigh   | 0.033403   | 0.033445   | 0.033491   |   0.0 |  0.06
Comm    | 2.1291     | 2.2011     | 2.2937     |   3.6 |  4.06
Output  | 4.2915e-05 | 4.5836e-05 | 7.7963e-05 |   0.1 |  0.00
Modify  | 1.6982     | 1.7171     | 1.7436     |   1.1 |  3.17
Other   |            | 0.1316     |            |       |  0.24

Nlocal:    200 ave 219 max 184 min
Histogram: 1 4 1 0 1 1 0 1 1 2
Nghost:    4717.33 ave 4783 max 4622 min
Histogram: 1 0 2 0 1 1 3 1 1 2
Neighs:    71508.9 ave 79939 max 63301 min
Histogram: 2 1 1 1 0 3 0 2 0 2

Total # of neighbors = 858107
Ave neighs/atom = 357.545
Ave special neighs/atom = 2
Neighbor list builds = 9
Dangerous builds = 0
PPPM initialization ...
  G vector (1/distance) = 0.336942
  grid = 40 40 40
  stencil order = 5
  estimated absolute RMS force accuracy = 0.000391029
  estimated relative force accuracy = 1.17757e-06
  using double precision FFTs
  3d grid and FFT values/proc = 15309 6400
Setting up Verlet run ...
  Unit style  : real
  Current step: 80000
  Time step   : 0.05
Memory usage per processor = 8.02302 Mbytes
Step Temp E_pair E_mol TotEng Press 
   80000    302.64193   -8818.3743            0   -7375.8874   -171.73659 
   90000    319.71647   -8889.5795            0   -7365.7101   -93.405911 
Loop time of 54.4273 on 12 procs for 10000 steps with 2400 atoms

Performance: 0.794 ns/day, 30.237 hours/ns, 183.731 timesteps/s
100.0% CPU use with 12 MPI tasks x no OpenMP threads

MPI task timing breakdown:
Section |  min time  |  avg time  |  max time  |%varavg| %total
---------------------------------------------------------------
Pair    | 18.198     | 20.545     | 23.003     |  27.9 | 37.75
Bond    | 0.0024397  | 0.0039687  | 0.0063503  |   1.6 |  0.01
Kspace  | 27.334     | 29.771     | 32.098     |  22.7 | 54.70
Neigh   | 0.08059    | 0.080702   | 0.080787   |   0.0 |  0.15
Comm    | 2.1411     | 2.1894     | 2.2584     |   2.4 |  4.02
Output  | 4.1962e-05 | 4.4763e-05 | 7.2002e-05 |   0.1 |  0.00
Modify  | 1.6862     | 1.7057     | 1.7329     |   1.3 |  3.13
Other   |            | 0.1318     |            |       |  0.24

Nlocal:    200 ave 212 max 189 min
Histogram: 2 2 1 0 2 1 0 1 0 3
Nghost:    4723.67 ave 4783 max 4675 min
Histogram: 2 1 2 0 1 2 2 0 1 1
Neighs:    71449.2 ave 80159 max 63748 min
Histogram: 1 1 1 1 2 3 1 1 0 1

Total # of neighbors = 857391
Ave neighs/atom = 357.246
Ave special neighs/atom = 2
Neighbor list builds = 22
Dangerous builds = 0
PPPM initialization ...
  G vector (1/distance) = 0.336942
  grid = 40 40 40
  stencil order = 5
  estimated absolute RMS force accuracy = 0.000391029
  estimated relative force accuracy = 1.17757e-06
  using double precision FFTs
  3d grid and FFT values/proc = 15309 6400
Setting up Verlet run ...
  Unit style  : real
  Current step: 90000
  Time step   : 0.1
Memory usage per processor = 8.02302 Mbytes
Step Temp E_pair E_mol TotEng Press 
   90000    319.71647   -8889.5795            0   -7365.7101   -93.235113 
  100000     305.5972   -8893.2846            0   -7436.7119    333.11922 
Loop time of 54.5461 on 12 procs for 10000 steps with 2400 atoms

Performance: 1.584 ns/day, 15.152 hours/ns, 183.331 timesteps/s
100.0% CPU use with 12 MPI tasks x no OpenMP threads

MPI task timing breakdown:
Section |  min time  |  avg time  |  max time  |%varavg| %total
---------------------------------------------------------------
Pair    | 17.815     | 20.614     | 23.25      |  29.4 | 37.79
Bond    | 0.002403   | 0.003961   | 0.0059342  |   1.5 |  0.01
Kspace  | 27.12      | 29.708     | 32.416     |  23.8 | 54.46
Neigh   | 0.17018    | 0.17034    | 0.17059    |   0.0 |  0.31
Comm    | 2.1188     | 2.1983     | 2.2696     |   3.4 |  4.03
Output  | 4.1008e-05 | 4.3968e-05 | 6.7949e-05 |   0.1 |  0.00
Modify  | 1.7006     | 1.72       | 1.7403     |   1.1 |  3.15
Other   |            | 0.1318     |            |       |  0.24

Nlocal:    200 ave 218 max 187 min
Histogram: 2 2 0 2 1 1 2 1 0 1
Nghost:    4729.58 ave 4778 max 4679 min
Histogram: 1 0 2 0 3 2 2 0 1 1
Neighs:    71446.8 ave 81780 max 60187 min
Histogram: 1 1 0 1 1 5 1 0 1 1

Total # of neighbors = 857362
Ave neighs/atom = 357.234
Ave special neighs/atom = 2
Neighbor list builds = 46
Dangerous builds = 0
PPPM initialization ...
  G vector (1/distance) = 0.336942
  grid = 40 40 40
  stencil order = 5
  estimated absolute RMS force accuracy = 0.000391029
  estimated relative force accuracy = 1.17757e-06
  using double precision FFTs
  3d grid and FFT values/proc = 15309 6400
Setting up Verlet run ...
  Unit style  : real
  Current step: 100000
  Time step   : 0.2
Memory usage per processor = 8.02302 Mbytes
Step Temp E_pair E_mol TotEng Press 
  100000     305.5972   -8893.2846            0   -7436.7119    332.45696 
  110000    296.47039   -8907.7687            0   -7494.6974   -115.87928 
Loop time of 54.8256 on 12 procs for 10000 steps with 2400 atoms

Performance: 3.152 ns/day, 7.615 hours/ns, 182.397 timesteps/s
100.0% CPU use with 12 MPI tasks x no OpenMP threads

MPI task timing breakdown:
Section |  min time  |  avg time  |  max time  |%varavg| %total
---------------------------------------------------------------
Pair    | 18.643     | 20.75      | 23.008     |  28.3 | 37.85
Bond    | 0.0025704  | 0.0039288  | 0.0054607  |   1.4 |  0.01
Kspace  | 27.42      | 29.651     | 31.666     |  23.0 | 54.08
Neigh   | 0.34415    | 0.34463    | 0.34519    |   0.1 |  0.63
Comm    | 2.1433     | 2.2219     | 2.2881     |   3.0 |  4.05
Output  | 4.1962e-05 | 4.4703e-05 | 7.1049e-05 |   0.1 |  0.00
Modify  | 1.7031     | 1.7226     | 1.7512     |   1.5 |  3.14
Other   |            | 0.1314     |            |       |  0.24

Nlocal:    200 ave 215 max 181 min
Histogram: 1 0 0 1 3 1 4 0 1 1
Nghost:    4757.33 ave 4779 max 4738 min
Histogram: 2 0 3 0 2 0 3 0 0 2
Neighs:    71485.8 ave 77355 max 63483 min
Histogram: 1 0 1 3 0 0 1 3 2 1

Total # of neighbors = 857830
Ave neighs/atom = 357.429
Ave special neighs/atom = 2
Neighbor list builds = 93
Dangerous builds = 0
PPPM initialization ...
  G vector (1/distance) = 0.336942
  grid = 40 40 40
  stencil order = 5
  estimated absolute RMS force accuracy = 0.000391029
  estimated relative force accuracy = 1.17757e-06
  using double precision FFTs
  3d grid and FFT values/proc = 15309 6400
Setting up Verlet run ...
  Unit style  : real
  Current step: 110000
  Time step   : 0.5
Memory usage per processor = 8.02302 Mbytes
Step Temp E_pair E_mol TotEng Press 
  110000    296.47039   -8907.7687            0   -7494.6974   -116.85521 
  120000    304.72251   -8790.4724            0   -7338.0688    272.90093 
Loop time of 55.4975 on 12 procs for 10000 steps with 2400 atoms

Performance: 7.784 ns/day, 3.083 hours/ns, 180.188 timesteps/s
100.0% CPU use with 12 MPI tasks x no OpenMP threads

MPI task timing breakdown:
Section |  min time  |  avg time  |  max time  |%varavg| %total
---------------------------------------------------------------
Pair    | 19.32      | 20.935     | 22.533     |  20.8 | 37.72
Bond    | 0.0024219  | 0.0039008  | 0.0047677  |   1.1 |  0.01
Kspace  | 27.969     | 29.561     | 31.203     |  17.2 | 53.26
Neigh   | 0.85808    | 0.85954    | 0.86157    |   0.1 |  1.55
Comm    | 2.2125     | 2.2589     | 2.3145     |   2.0 |  4.07
Output  | 4.1962e-05 | 4.3809e-05 | 6.3181e-05 |   0.1 |  0.00
Modify  | 1.7336     | 1.7465     | 1.7642     |   0.9 |  3.15
Other   |            | 0.1335     |            |       |  0.24

Nlocal:    200 ave 210 max 186 min
Histogram: 2 0 1 1 1 0 1 2 2 2
Nghost:    4725.67 ave 4777 max 4674 min
Histogram: 4 1 0 1 0 0 1 1 0 4
Neighs:    71492.2 ave 77222 max 62277 min
Histogram: 1 0 1 0 0 2 2 4 1 1

Total # of neighbors = 857906
Ave neighs/atom = 357.461
Ave special neighs/atom = 2
Neighbor list builds = 232
Dangerous builds = 0
PPPM initialization ...
  G vector (1/distance) = 0.336942
  grid = 40 40 40
  stencil order = 5
  estimated absolute RMS force accuracy = 0.000391029
  estimated relative force accuracy = 1.17757e-06
  using double precision FFTs
  3d grid and FFT values/proc = 15309 6400
Setting up Verlet run ...
  Unit style  : real
  Current step: 120000
  Time step   : 1
Memory usage per processor = 8.02302 Mbytes
Step Temp E_pair E_mol TotEng Press 
  120000    304.72251   -8790.4724            0   -7338.0688     268.7881 
  130000    313.23203   -8962.6143            0   -7469.6517   -606.56193 
Loop time of 57.0473 on 12 procs for 10000 steps with 2400 atoms

Performance: 15.145 ns/day, 1.585 hours/ns, 175.293 timesteps/s
100.0% CPU use with 12 MPI tasks x no OpenMP threads

MPI task timing breakdown:
Section |  min time  |  avg time  |  max time  |%varavg| %total
---------------------------------------------------------------
Pair    | 19.514     | 21.078     | 22.842     |  23.7 | 36.95
Bond    | 0.0024788  | 0.0040978  | 0.0055387  |   1.4 |  0.01
Kspace  | 28.284     | 30.048     | 31.585     |  19.5 | 52.67
Neigh   | 1.6949     | 1.6979     | 1.7013     |   0.2 |  2.98
Comm    | 2.2945     | 2.324      | 2.3624     |   1.3 |  4.07
Output  | 4.1962e-05 | 4.4286e-05 | 6.8903e-05 |   0.1 |  0.00
Modify  | 1.7474     | 1.7615     | 1.7843     |   1.1 |  3.09
Other   |            | 0.134      |            |       |  0.23

Nlocal:    200 ave 217 max 178 min
Histogram: 1 0 0 1 3 1 2 2 1 1
Nghost:    4754.17 ave 4779 max 4720 min
Histogram: 1 0 1 2 1 1 0 4 0 2
Neighs:    71448.3 ave 79074 max 62333 min
Histogram: 1 1 1 1 1 2 1 1 1 2

Total # of neighbors = 857380
Ave neighs/atom = 357.242
Ave special neighs/atom = 2
Neighbor list builds = 458
Dangerous builds = 0
PPPM initialization ...
  G vector (1/distance) = 0.336942
  grid = 40 40 40
  stencil order = 5
  estimated absolute RMS force accuracy = 0.000391029
  estimated relative force accuracy = 1.17757e-06
  using double precision FFTs
  3d grid and FFT values/proc = 15309 6400
Setting up Verlet run ...
  Unit style  : real
  Current step: 0
  Time step   : 1
Memory usage per processor = 8.02874 Mbytes
Step Temp E_pair E_mol TotEng Press 
       0    313.23203   -8962.6143            0   -7469.6517   -607.36729 
   20000    302.48278   -8807.9439            0   -7366.2156      229.242 
Loop time of 113.116 on 12 procs for 20000 steps with 2400 atoms

Performance: 15.276 ns/day, 1.571 hours/ns, 176.809 timesteps/s
100.0% CPU use with 12 MPI tasks x no OpenMP threads

MPI task timing breakdown:
Section |  min time  |  avg time  |  max time  |%varavg| %total
---------------------------------------------------------------
Pair    | 38.591     | 42.137     | 44.731     |  35.5 | 37.25
Bond    | 0.005074   | 0.0080077  | 0.011145   |   1.9 |  0.01
Kspace  | 56.617     | 59.165     | 62.714     |  29.3 | 52.30
Neigh   | 3.3616     | 3.3646     | 3.3678     |   0.1 |  2.97
Comm    | 4.5237     | 4.6427     | 4.7489     |   3.5 |  4.10
Output  | 4.2915e-05 | 4.5975e-05 | 7.2956e-05 |   0.1 |  0.00
Modify  | 3.4951     | 3.5304     | 3.5921     |   2.0 |  3.12
Other   |            | 0.2687     |            |       |  0.24

Nlocal:    200 ave 210 max 191 min
Histogram: 2 1 2 1 0 1 0 3 0 2
Nghost:    4719.83 ave 4773 max 4667 min
Histogram: 1 1 1 2 1 2 1 0 1 2
Neighs:    71406.9 ave 79245 max 67173 min
Histogram: 4 1 1 0 3 1 0 1 0 1

Total # of neighbors = 856883
Ave neighs/atom = 357.035
Ave special neighs/atom = 2
Neighbor list builds = 909
Dangerous builds = 0
PPPM initialization ...
  G vector (1/distance) = 0.336942
  grid = 40 40 40
  stencil order = 5
  estimated absolute RMS force accuracy = 0.000391029
  estimated relative force accuracy = 1.17757e-06
  using double precision FFTs
  3d grid and FFT values/proc = 15309 6400
Setting up Verlet run ...
  Unit style  : real
  Current step: 0
  Time step   : 1
Memory usage per processor = 9.53019 Mbytes
Step Temp TempAve Press PressAve PotEng PEAve KinEng KEAve TotEng TEAve Density 
       0    302.48278            0    229.22483            0   -8807.9439            0    1441.7283            0   -7366.2156            0   0.98554079 
  100000    303.91343    303.35754   -52.152037   -5.3723615   -8841.1709   -8830.5025    1448.5472    1445.8977   -7392.6237   -7384.6048   0.98554079 
  200000    294.35877    303.22742   -923.52855   -11.444824   -8830.7481   -8837.0249    1403.0067    1445.2775   -7427.7414   -7391.7474   0.98554079 
  300000    318.33198    303.27677    704.51231   -48.082296   -8772.0221    -8838.398    1517.2706    1445.5127   -7254.7515   -7392.8853   0.98554079 
  400000    299.44638    303.06657   -324.62675   -30.648744   -8801.5762   -8834.9401    1427.2559    1444.5108   -7374.3204   -7390.4293   0.98554079 
  500000    310.07001    303.30136    385.69281   -21.762061    -8826.756   -8836.2555    1477.8914    1445.6299   -7348.8646   -7390.6256   0.98554079 
  600000     303.4848    303.30415    501.96307   -20.944384   -8820.1276   -8845.3038    1446.5043    1445.6432   -7373.6233   -7399.6606   0.98554079 
  700000    301.92994    303.11745      54.3769   -61.726249   -8818.6692   -8837.4074    1439.0933    1444.7533   -7379.5759   -7392.6541   0.98554079 
  800000    303.19327    303.20781   -694.79438   -36.310447   -8845.9831   -8841.4591    1445.1147     1445.184   -7400.8684   -7396.2751   0.98554079 
  900000    309.22839     302.9492    366.11447   -54.801538   -8807.5405   -8838.1114      1473.88    1443.9514   -7333.6606     -7394.16   0.98554079 
 1000000    300.92565    303.15599    230.66197   -70.544561    -8877.569    -8839.601    1434.3065     1444.937   -7443.2625    -7394.664   0.98554079 
 1100000    307.53375     303.2967   -443.86916   -77.800811   -8782.5156   -8834.3831    1465.8028    1445.6077   -7316.7128   -7388.7754   0.98554079 
 1200000    308.11479    303.09415   -193.37063    -43.42185   -8838.1448   -8844.6619    1468.5722    1444.6423   -7369.5726   -7400.0196   0.98554079 
 1300000    308.05452    303.22651   -237.95732   -27.859811   -8720.5767   -8842.5446    1468.2849    1445.2731   -7252.2918   -7397.2715   0.98554079 
 1400000    303.57561    303.40688    397.46397   -38.942832    -8849.685   -8844.8467    1446.9371    1446.1329   -7402.7479   -7398.7138   0.98554079 
 1500000    308.53886     303.1042    156.28164   -16.738978   -8862.2014   -8838.5191    1470.5935    1444.6902   -7391.6079   -7393.8289   0.98554079 
 1600000    305.39927    303.15173   -239.19423   -61.006491   -8887.1869    -8841.387    1455.6292    1444.9167   -7431.5578   -7396.4703   0.98554079 
 1700000    297.16012    303.16438    204.66432    -41.64738   -8820.6329   -8838.9354    1416.3588     1444.977   -7404.2741   -7393.9584   0.98554079 
 1800000    298.61584    303.06047   -184.24467   -56.220673   -8849.0792   -8842.7675    1423.2972    1444.4817    -7425.782   -7398.2857   0.98554079 
 1900000    300.71861    303.28166    417.42231   -32.003516   -8810.9956   -8842.0356    1433.3197     1445.536   -7377.6759   -7396.4996   0.98554079 
 2000000    303.62085     303.1158   -60.364978   -25.450703   -8848.6738   -8830.6712    1447.1527    1444.7454   -7401.5211   -7385.9258   0.98554079 
 2100000    288.39106    303.23472   -154.83452   -16.437674   -8869.6184   -8836.4587    1374.5627    1445.3123   -7495.0557   -7391.1464   0.98554079 
 2200000     300.7964    303.31241   -225.51413   -61.581209   -8827.1817   -8833.6957    1433.6905    1445.6826   -7393.4912   -7388.0131   0.98554079 
 2300000     307.0184    303.09806   -527.84443   -37.056975    -8866.374   -8839.0316    1463.3465    1444.6609   -7403.0275   -7394.3706   0.98554079 
 2400000    299.53699    303.12034   -14.031304   -68.095273   -8837.5629     -8840.94    1427.6877    1444.7671   -7409.8751   -7396.1729   0.98554079 
 2500000    311.92523    303.32384     -212.782   -30.877838   -8777.1504   -8840.5979     1486.734     1445.737   -7290.4164   -7394.8609   0.98554079 
 2600000    300.53885    303.15206   -643.02624   -46.574551   -8861.7982   -8842.3145    1432.4629    1444.9183   -7429.3353   -7397.3962   0.98554079 
 2700000    291.25001    303.23903   -10.211636   -70.013481   -8843.6252   -8837.5644    1388.1894    1445.3328   -7455.4358   -7392.2316   0.98554079 
 2800000    301.08783    303.02486    61.061329    7.0492648   -8777.1256   -8836.0724    1435.0795     1444.312   -7342.0461   -7391.7604   0.98554079 
 2900000    293.36874    302.93217   -83.719893    5.8216604   -8820.3194   -8841.1105    1398.2879    1443.8702   -7422.0315   -7397.2402   0.98554079 
 3000000      303.315    303.28779   -639.55931   -29.184367   -8897.5431   -8836.5757    1445.6949    1445.5652   -7451.8481   -7391.0105   0.98554079 
 3100000    305.64985    303.14714   -103.05596    -15.00195   -8845.4643   -8843.4986    1456.8235    1444.8949   -7388.6408   -7398.6037   0.98554079 
 3200000    306.25223     303.0045   -60.792242   -46.897391   -8823.8633    -8834.229    1459.6947     1444.215   -7364.1686    -7390.014   0.98554079 
 3300000    314.54176     303.1691    467.68483   -83.223995   -8860.3529   -8835.0634    1499.2052    1444.9995   -7361.1477   -7390.0639   0.98554079 
 3400000    300.95244    303.23159   -706.28207   -48.363629   -8862.4603   -8844.4652    1434.4342    1445.2974   -7428.0261   -7399.1678   0.98554079 
 3500000    304.28695    303.24001    730.08087   -40.484826   -8861.8118   -8828.2652    1450.3275    1445.3375   -7411.4843   -7382.9277   0.98554079 
 3600000    309.53128    303.13661   -140.84745   -30.447233   -8869.8005   -8839.4454    1475.3236    1444.8446   -7394.4769   -7394.6008   0.98554079 
 3700000    309.05112    303.15746    142.24072   -44.311124   -8843.8118   -8836.0261    1473.0351     1444.944   -7370.7767   -7391.0821   0.98554079 
 3800000    296.21176    303.41376   -25.753819   -43.003128   -8785.0231   -8838.6982    1411.8386    1446.1656   -7373.1844   -7392.5325   0.98554079 
 3900000    303.68478    303.13416    -427.4355   -8.4727587   -8842.2854   -8838.2034    1447.4574     1444.833    -7394.828   -7393.3704   0.98554079 
 4000000    306.88622    302.91562   -181.73678   -75.726006   -8940.8476   -8844.0462    1462.7165    1443.7913   -7478.1311   -7400.2548   0.98554079 
 4100000    293.64916    303.11497    403.29635   -27.384652   -8867.3031   -8844.2545    1399.6245    1444.7415   -7467.6786    -7399.513   0.98554079 
 4200000     298.5918    303.04798   -99.173018   -25.572297   -8824.2063   -8836.1178    1423.1827    1444.4222   -7401.0237   -7391.6956   0.98554079 
 4300000    300.71483    303.11865    121.66913   -44.812143   -8791.0238   -8843.8016    1433.3017     1444.759   -7357.7221   -7399.0426   0.98554079 
 4400000    296.88928    303.35327    111.08143   -49.611894   -8892.1558    -8837.806    1415.0679    1445.8773   -7477.0879   -7391.9286   0.98554079 
 4500000    291.80427    303.15381    -320.5323   -19.992308    -8912.966   -8835.0363    1390.8312    1444.9266   -7522.1349   -7390.1097   0.98554079 
 4600000    308.55469    303.10272    778.97826   -50.171623   -8854.2534   -8840.2204    1470.6689    1444.6831   -7383.5845   -7395.5373   0.98554079 
 4700000    300.83164      303.023   -35.241203   -1.0537773    -8819.865   -8846.7367    1433.8584    1444.3031   -7386.0065   -7402.4335   0.98554079 
 4800000    290.02884     303.2102    124.72084   -18.920505   -8871.0437   -8841.4897    1382.3689    1445.1954   -7488.6748   -7396.2943   0.98554079 
 4900000    311.95684    303.13707    14.795118   -29.938336    -8829.242   -8841.3201    1486.8846    1444.8469   -7342.3573   -7396.4733   0.98554079 
 5000000    302.97581    303.13478   -569.60065   -11.057903   -8821.8011    -8840.253    1444.0782    1444.8359   -7377.7229   -7395.4171   0.98554079 
 5100000    299.10386     303.0201   -677.78663   -31.562716   -8860.4348   -8842.3467    1425.6233    1444.2894   -7434.8116   -7398.0573   0.98554079 
 5200000    302.52322     302.9598   -534.57544   -11.303827   -8842.1939   -8843.7813     1441.921    1444.0019   -7400.2729   -7399.7794   0.98554079 
 5300000    318.13037    303.13776    341.24036   -29.556306   -8762.3275   -8836.1729    1516.3096    1444.8501   -7246.0179   -7391.3228   0.98554079 
 5400000    304.04995     303.1797   -128.36421   -31.600966    -8871.972   -8844.8074    1449.1979      1445.05   -7422.7741   -7399.7574   0.98554079 
 5500000    308.79701    303.25637    60.745955   -27.710392   -8911.7434   -8843.0401    1471.8239    1445.4154   -7439.9195   -7397.6246   0.98554079 
 5600000    286.89251    303.09595    803.06744   -2.1320217   -8811.3048    -8844.294    1367.4201    1444.6508   -7443.8847   -7399.6432   0.98554079 
 5700000    306.89436    303.18283    80.286952    -65.03169   -8846.8911   -8837.4124    1462.7553     1445.065   -7384.1358   -7392.3475   0.98554079 
 5800000    296.32684    303.48185    172.41543   -28.768018   -8823.2054   -8838.4724    1412.3871    1446.4902   -7410.8183   -7391.9823   0.98554079 
 5900000    309.33334    303.46458    397.90504   -12.434989   -8855.6984   -8838.1533    1474.3802    1446.4079   -7381.3182   -7391.7455   0.98554079 
 6000000    308.15368    302.96148     379.8409   -48.413763   -8842.1346   -8847.2858    1468.7576    1444.0099    -7373.377   -7403.2759   0.98554079 
 6100000    308.39108    302.95457   -16.813952   -31.400137   -8897.5348   -8845.0815    1469.8891     1443.977   -7427.6457   -7401.1046   0.98554079 
 6200000     307.4855    303.36169    875.05032   -24.577571   -8870.4107   -8842.4762    1465.5728    1445.9175   -7404.8378   -7396.5587   0.98554079 
 6300000    313.14983    303.11561    -30.01506   -12.278015   -8786.3105   -8838.1519    1492.5708    1444.7446   -7293.7397   -7393.4074   0.98554079 
 6400000    309.11292    303.05541   -391.94563   -20.092603   -8900.8086   -8845.5089    1473.3296    1444.4576    -7427.479   -7401.0513   0.98554079 
 6500000     312.4505    303.13281   -290.94584     -23.9625   -8767.6488   -8852.2188    1489.2376    1444.8266   -7278.4113   -7407.3922   0.98554079 
 6600000     297.5456    303.32245   -65.985752   -8.8849193   -8967.2978   -8838.7532    1418.1961    1445.7304   -7549.1017   -7393.0228   0.98554079 
 6700000    302.83532    303.28346   -49.096499   -70.195669   -8776.9294   -8835.6046    1443.4086    1445.5446   -7333.5208     -7390.06   0.98554079 
 6800000    309.69121    303.14702   -421.73149   -61.659341   -8830.0342   -8834.2439     1476.086    1444.8943   -7353.9482   -7389.3496   0.98554079 
 6900000    302.56227    303.22831   -9.0008041   -16.421577   -8791.0286   -8839.2015    1442.1072    1445.2817   -7348.9215   -7393.9198   0.98554079 
 7000000    308.40218    303.39041   -10.060914   -37.485909   -8807.3742   -8841.0245     1469.942    1446.0543   -7337.4322   -7394.9702   0.98554079 
 7100000    313.27114    303.18001   -249.69946   -12.331766   -8737.3773   -8838.3909     1493.149    1445.0515   -7244.2282   -7393.3394   0.98554079 
 7200000    300.62932    303.05331   -150.68088   -28.253937   -8812.2437   -8843.3805    1432.8941    1444.4476   -7379.3496   -7398.9329   0.98554079 
 7300000    306.58311    303.16666   -581.04615   -35.504758   -8885.6155    -8833.831    1461.2718    1444.9879   -7424.3437   -7388.8431   0.98554079 
 7400000    313.50753    303.08329   -392.71647   -32.876232   -8839.6326    -8840.314    1494.2757    1444.5905   -7345.3568   -7395.7236   0.98554079 
 7500000    292.91537    303.11363     275.8164    3.9971184   -8840.9266   -8840.2332     1396.127    1444.7351   -7444.7997   -7395.4981   0.98554079 
 7600000    317.67216    303.36694   -473.29918   -19.717583   -8827.4237    -8834.641    1514.1256    1445.9425    -7313.298   -7388.6986   0.98554079 
 7700000    303.50563    302.99377    385.74183   -63.851606    -8865.362   -8838.4229    1446.6035    1444.1638   -7418.7585   -7394.2591   0.98554079 
 7800000    300.63955    302.72252    190.45141   -57.827542   -8852.0876   -8837.1453    1432.9429     1442.871   -7419.1447   -7394.2743   0.98554079 
 7900000    302.39806    303.18313   -245.08613   -23.302619   -8780.4407   -8848.2755    1441.3245    1445.0664   -7339.1162   -7403.2091   0.98554079 
 8000000    295.80173    302.90617    271.80376   -17.448158   -8812.7503   -8846.0962    1409.8843    1443.7463    -7402.866   -7402.3499   0.98554079 
 8100000    308.88031    303.25215   -344.97867   -24.203672   -8824.2299   -8842.0497    1472.2209    1445.3954    -7352.009   -7396.6543   0.98554079 
 8200000    302.66647    303.12402    81.961438   -39.741341   -8778.3057   -8840.8654    1442.6038    1444.7847   -7335.7019   -7396.0807   0.98554079 
 8300000     308.4754    303.04031   -1007.5151   -49.086677   -8799.1264   -8846.2212     1470.291    1444.3857   -7328.8354   -7401.8355   0.98554079 
 8400000    306.87837    303.10721   -259.11303   -30.317217   -8847.8394   -8837.4128     1462.679    1444.7045   -7385.1604   -7392.7082   0.98554079 
 8500000      304.218    302.87807    960.46301    -44.08259   -8901.7086   -8848.0942    1449.9989    1443.6124   -7451.7097   -7404.4819   0.98554079 
 8600000    312.48169    303.04368    196.44793   -38.048283   -8733.7299   -8840.1583    1489.3863    1444.4017   -7244.3436   -7395.7566   0.98554079 
 8700000    300.71613    303.14327    -261.2325   -55.853989   -8841.8462   -8841.0825    1433.3079    1444.8764   -7408.5384   -7396.2061   0.98554079 
 8800000    303.24965    303.29064    294.56204   -17.614642   -8810.2275   -8836.2238    1445.3834    1445.5788   -7364.8441    -7390.645   0.98554079 
 8900000    296.71383    302.90218   -523.07919    -24.65626   -8899.4985   -8842.3772    1414.2316    1443.7273   -7485.2668   -7398.6499   0.98554079 
 9000000    316.53206    303.14577   -445.94873   -33.101282   -8780.7179   -8849.5235    1508.6916    1444.8883   -7272.0263   -7404.6352   0.98554079 
 9100000    307.99408    303.03622   -124.69746   -18.938666   -8887.9085   -8847.0816    1467.9969    1444.3662   -7419.9116   -7402.7154   0.98554079 
 9200000    311.37904    303.08963    133.58743   -32.671724    -8845.154   -8838.9184    1484.1307    1444.6207   -7361.0233   -7394.2976   0.98554079 
 9300000    303.35268    303.37469    89.648208   -28.440136   -8856.6552   -8841.8087    1445.8745    1445.9794   -7410.7807   -7395.8292   0.98554079 
 9400000    300.92293    303.28559    369.39473   -47.816706   -8873.2973    -8838.439    1434.2935    1445.5548   -7439.0037   -7392.8842   0.98554079 
 9500000    308.82057    303.25018   -282.57966   -50.284485   -8858.7399   -8840.5804    1471.9362     1445.386   -7386.8036   -7395.1944   0.98554079 
 9600000    303.63302    303.38887    122.49155   -47.920808   -8749.0782    -8833.787    1447.2107     1446.047   -7301.8675     -7387.74   0.98554079 
 9700000    305.26837    303.13206    258.95053   -18.807694   -8784.0953   -8835.8777    1455.0053     1444.823     -7329.09   -7391.0547   0.98554079 
 9800000    287.31674     303.0203    212.58208   -28.981235   -8816.1167   -8840.9823    1369.4422    1444.2903   -7446.6746    -7396.692   0.98554079 
 9900000    316.80917    303.33671    -339.1991   -37.194419   -8877.3969   -8836.4268    1510.0124    1445.7984   -7367.3845   -7390.6284   0.98554079 
10000000    298.90681    303.17847    797.96695   -33.496805   -8860.4899   -8838.7026    1424.6841    1445.0442   -7435.8058   -7393.6584   0.98554079 
Loop time of 58345.4 on 12 procs for 10000000 steps with 2400 atoms

Performance: 14.808 ns/day, 1.621 hours/ns, 171.393 timesteps/s
100.0% CPU use with 12 MPI tasks x no OpenMP threads

MPI task timing breakdown:
Section |  min time  |  avg time  |  max time  |%varavg| %total
---------------------------------------------------------------
Pair    | 20550      | 22178      | 23748      | 762.8 | 38.01
Bond    | 3.6443     | 5.0306     | 6.4692     |  39.5 |  0.01
Kspace  | 28415      | 29958      | 31575      | 646.6 | 51.35
Neigh   | 1695.5     | 1698.2     | 1700.8     |   3.9 |  2.91
Comm    | 2298.8     | 2327.5     | 2353.7     |  36.2 |  3.99
Output  | 9.1764     | 11.653     | 13.688     |  45.1 |  0.02
Modify  | 1992.4     | 2012.2     | 2048.3     |  44.0 |  3.45
Other   |            | 154        |            |       |  0.26

Nlocal:    200 ave 209 max 188 min
Histogram: 2 0 0 1 3 0 1 1 1 3
Nghost:    4726 ave 4767 max 4698 min
Histogram: 1 3 2 0 2 1 1 0 1 1
Neighs:    71455.3 ave 80357 max 64506 min
Histogram: 2 2 2 1 0 2 0 0 0 3

Total # of neighbors = 857464
Ave neighs/atom = 357.277
Ave special neighs/atom = 2
Neighbor list builds = 456232
Dangerous builds = 0
 All done! 
[c122:28572] *** Process received signal ***
[c122:28572] Signal: Segmentation fault (11)
[c122:28572] Signal code: Address not mapped (1)
[c122:28572] Failing at address: 0x2ec100002ec0
[c122:28574] *** Process received signal ***
[c122:28574] Signal: Segmentation fault (11)
[c122:28574] Signal code:  (128)
[c122:28574] Failing at address: (nil)
[c122:28575] *** Process received signal ***
[c122:28575] Signal: Segmentation fault (11)
[c122:28575] Signal code: Address not mapped (1)
[c122:28575] Failing at address: 0x37a8000037a7
[c122:28576] *** Process received signal ***
[c122:28576] Signal: Segmentation fault (11)
[c122:28576] Signal code:  (128)
[c122:28576] Failing at address: (nil)
[c122:28577] *** Process received signal ***
[c122:28577] Signal: Segmentation fault (11)
[c122:28577] Signal code:  (128)
[c122:28577] Failing at address: (nil)
[c122:28578] *** Process received signal ***
[c122:28578] Signal: Segmentation fault (11)
[c122:28578] Signal code:  (128)
[c122:28578] Failing at address: (nil)
[c122:28579] *** Process received signal ***
[c122:28579] Signal: Segmentation fault (11)
[c122:28579] Signal code:  (128)
[c122:28579] Failing at address: (nil)
[c122:28580] *** Process received signal ***
[c122:28580] Signal: Segmentation fault (11)
[c122:28580] Signal code:  (128)
[c122:28580] Failing at address: (nil)
[c122:28581] *** Process received signal ***
[c122:28581] Signal: Segmentation fault (11)
[c122:28581] Signal code: Address not mapped (1)
[c122:28581] Failing at address: 0x2bb000002ba
[c122:28581] [ 0] /lib/x86_64-linux-gnu/libpthread.so.0(+0xf8d0)[0x7fd1dc75a8d0]
[c122:28581] [ 1] /home/noura/LAMMPS/tests/src_v05/lmp_mpi[0x5eb733]
[c122:28581] [ 2] /home/noura/LAMMPS/tests/src_v05/lmp_mpi[0x5ebca9]
[c122:28581] [ 3] /home/noura/LAMMPS/tests/src_v05/lmp_mpi[0x64896a]
[c122:28581] [ 4] /home/noura/LAMMPS/tests/src_v05/lmp_mpi[0x64b8c1]
[c122:28581] [ 5] /home/noura/LAMMPS/tests/src_v05/lmp_mpi[0x64bb19]
[c122:28581] [ 6] /home/noura/LAMMPS/tests/src_v05/lmp_mpi[0x52f2ad]
[c122:28581] [ 7] /home/noura/LAMMPS/tests/src_v05/lmp_mpi[0x52f342]
[c122:28581] [ 8] /home/noura/LAMMPS/tests/src_v05/lmp_mpi[0x4041be]
[c122:28581] [ 9] /lib/x86_64-linux-gnu/libc.so.6(__libc_start_main+0xf5)[0x7fd1dc3c3b45]
[c122:28581] [10] /home/noura/LAMMPS/tests/src_v05/lmp_mpi[0x40427f]
[c122:28581] *** End of error message ***
[c122:28572] [ 0] /lib/x86_64-linux-gnu/libpthread.so.0(+0xf8d0)[0x7f659186e8d0]
[c122:28572] [ 1] /home/noura/LAMMPS/tests/src_v05/lmp_mpi[0x5eb733]
[c122:28572] [ 2] /home/noura/LAMMPS/tests/src_v05/lmp_mpi[0x5ebca9]
[c122:28572] [ 3] /home/noura/LAMMPS/tests/src_v05/lmp_mpi[0x64896a]
[c122:28572] [ 4] /home/noura/LAMMPS/tests/src_v05/lmp_mpi[0x64b8c1]
[c122:28572] [ 5] /home/noura/LAMMPS/tests/src_v05/lmp_mpi[0x64bb19]
[c122:28572] [ 6] /home/noura/LAMMPS/tests/src_v05/lmp_mpi[0x52f2ad]
[c122:28572] [ 7] /home/noura/LAMMPS/tests/src_v05/lmp_mpi[0x52f342]
[c122:28572] [ 8] /home/noura/LAMMPS/tests/src_v05/lmp_mpi[0x4041be]
[c122:28572] [ 9] /lib/x86_64-linux-gnu/libc.so.6(__libc_start_main+0xf5)[0x7f65914d7b45]
[c122:28572] [10] /home/noura/LAMMPS/tests/src_v05/lmp_mpi[0x40427f]
[c122:28572] *** End of error message ***
[c122:28574] [ 0] /lib/x86_64-linux-gnu/libpthread.so.0(+0xf8d0)[0x7f45038118d0]
[c122:28574] [ 1] /home/noura/LAMMPS/tests/src_v05/lmp_mpi[0x5eb733]
[c122:28574] [ 2] /home/noura/LAMMPS/tests/src_v05/lmp_mpi[0x5ebca9]
[c122:28574] [ 3] /home/noura/LAMMPS/tests/src_v05/lmp_mpi[0x64896a]
[c122:28574] [ 4] /home/noura/LAMMPS/tests/src_v05/lmp_mpi[0x64b8c1]
[c122:28574] [ 5] /home/noura/LAMMPS/tests/src_v05/lmp_mpi[0x64bb19]
[c122:28574] [ 6] /home/noura/LAMMPS/tests/src_v05/lmp_mpi[0x52f2ad]
[c122:28574] [ 7] /home/noura/LAMMPS/tests/src_v05/lmp_mpi[0x52f342]
[c122:28574] [ 8] /home/noura/LAMMPS/tests/src_v05/lmp_mpi[0x4041be]
[c122:28574] [ 9] /lib/x86_64-linux-gnu/libc.so.6(__libc_start_main+0xf5)[0x7f450347ab45]
[c122:28574] [10] /home/noura/LAMMPS/tests/src_v05/lmp_mpi[0x40427f]
[c122:28574] *** End of error message ***
[c122:28575] [ 0] /lib/x86_64-linux-gnu/libpthread.so.0(+0xf8d0)[0x7f9e8cdb68d0]
[c122:28575] [ 1] /home/noura/LAMMPS/tests/src_v05/lmp_mpi[0x5eb733]
[c122:28575] [ 2] /home/noura/LAMMPS/tests/src_v05/lmp_mpi[0x5ebca9]
[c122:28575] [ 3] /home/noura/LAMMPS/tests/src_v05/lmp_mpi[0x64896a]
[c122:28575] [ 4] /home/noura/LAMMPS/tests/src_v05/lmp_mpi[0x64b8c1]
[c122:28575] [ 5] /home/noura/LAMMPS/tests/src_v05/lmp_mpi[0x64bb19]
[c122:28575] [ 6] /home/noura/LAMMPS/tests/src_v05/lmp_mpi[0x52f2ad]
[c122:28575] [ 7] /home/noura/LAMMPS/tests/src_v05/lmp_mpi[0x52f342]
[c122:28575] [ 8] /home/noura/LAMMPS/tests/src_v05/lmp_mpi[0x4041be]
[c122:28575] [ 9] /lib/x86_64-linux-gnu/libc.so.6(__libc_start_main+0xf5)[0x7f9e8ca1fb45]
[c122:28575] [10] /home/noura/LAMMPS/tests/src_v05/lmp_mpi[0x40427f]
[c122:28575] *** End of error message ***
[c122:28576] [ 0] /lib/x86_64-linux-gnu/libpthread.so.0(+0xf8d0)[0x7fe0b4c018d0]
[c122:28576] [ 1] /home/noura/LAMMPS/tests/src_v05/lmp_mpi[0x5eb733]
[c122:28576] [ 2] /home/noura/LAMMPS/tests/src_v05/lmp_mpi[0x5ebca9]
[c122:28576] [ 3] /home/noura/LAMMPS/tests/src_v05/lmp_mpi[0x64896a]
[c122:28576] [ 4] /home/noura/LAMMPS/tests/src_v05/lmp_mpi[0x64b8c1]
[c122:28576] [ 5] /home/noura/LAMMPS/tests/src_v05/lmp_mpi[0x64bb19]
[c122:28576] [ 6] /home/noura/LAMMPS/tests/src_v05/lmp_mpi[0x52f2ad]
[c122:28576] [ 7] /home/noura/LAMMPS/tests/src_v05/lmp_mpi[0x52f342]
[c122:28576] [ 8] /home/noura/LAMMPS/tests/src_v05/lmp_mpi[0x4041be]
[c122:28576] [ 9] /lib/x86_64-linux-gnu/libc.so.6(__libc_start_main+0xf5)[0x7fe0b486ab45]
[c122:28576] [10] /home/noura/LAMMPS/tests/src_v05/lmp_mpi[0x40427f]
[c122:28576] *** End of error message ***
[c122:28577] [ 0] /lib/x86_64-linux-gnu/libpthread.so.0(+0xf8d0)[0x7f8eecd5e8d0]
[c122:28577] [ 1] /home/noura/LAMMPS/tests/src_v05/lmp_mpi[0x5eb733]
[c122:28577] [ 2] /home/noura/LAMMPS/tests/src_v05/lmp_mpi[0x5ebca9]
[c122:28577] [ 3] /home/noura/LAMMPS/tests/src_v05/lmp_mpi[0x64896a]
[c122:28577] [ 4] /home/noura/LAMMPS/tests/src_v05/lmp_mpi[0x64b8c1]
[c122:28577] [ 5] /home/noura/LAMMPS/tests/src_v05/lmp_mpi[0x64bb19]
[c122:28577] [ 6] /home/noura/LAMMPS/tests/src_v05/lmp_mpi[0x52f2ad]
[c122:28577] [ 7] /home/noura/LAMMPS/tests/src_v05/lmp_mpi[0x52f342]
[c122:28577] [ 8] /home/noura/LAMMPS/tests/src_v05/lmp_mpi[0x4041be]
[c122:28577] [ 9] /lib/x86_64-linux-gnu/libc.so.6(__libc_start_main+0xf5)[0x7f8eec9c7b45]
[c122:28577] [10] /home/noura/LAMMPS/tests/src_v05/lmp_mpi[0x40427f]
[c122:28577] *** End of error message ***
[c122:28578] [ 0] /lib/x86_64-linux-gnu/libpthread.so.0(+0xf8d0)[0x7f96a51138d0]
[c122:28578] [ 1] /home/noura/LAMMPS/tests/src_v05/lmp_mpi[0x5eb733]
[c122:28578] [ 2] /home/noura/LAMMPS/tests/src_v05/lmp_mpi[0x5ebca9]
[c122:28578] [ 3] /home/noura/LAMMPS/tests/src_v05/lmp_mpi[0x64896a]
[c122:28578] [ 4] /home/noura/LAMMPS/tests/src_v05/lmp_mpi[0x64b8c1]
[c122:28578] [ 5] /home/noura/LAMMPS/tests/src_v05/lmp_mpi[0x64bb19]
[c122:28578] [ 6] /home/noura/LAMMPS/tests/src_v05/lmp_mpi[0x52f2ad]
[c122:28578] [ 7] /home/noura/LAMMPS/tests/src_v05/lmp_mpi[0x52f342]
[c122:28578] [ 8] /home/noura/LAMMPS/tests/src_v05/lmp_mpi[0x4041be]
[c122:28578] [ 9] /lib/x86_64-linux-gnu/libc.so.6(__libc_start_main+0xf5)[0x7f96a4d7cb45]
[c122:28578] [10] /home/noura/LAMMPS/tests/src_v05/lmp_mpi[0x40427f]
[c122:28578] *** End of error message ***
[c122:28579] [ 0] /lib/x86_64-linux-gnu/libpthread.so.0(+0xf8d0)[0x7f9b4d78c8d0]
[c122:28579] [ 1] /home/noura/LAMMPS/tests/src_v05/lmp_mpi[0x5eb733]
[c122:28579] [ 2] /home/noura/LAMMPS/tests/src_v05/lmp_mpi[0x5ebca9]
[c122:28579] [ 3] /home/noura/LAMMPS/tests/src_v05/lmp_mpi[0x64896a]
[c122:28579] [ 4] /home/noura/LAMMPS/tests/src_v05/lmp_mpi[0x64b8c1]
[c122:28579] [ 5] /home/noura/LAMMPS/tests/src_v05/lmp_mpi[0x64bb19]
[c122:28579] [ 6] /home/noura/LAMMPS/tests/src_v05/lmp_mpi[0x52f2ad]
[c122:28579] [ 7] /home/noura/LAMMPS/tests/src_v05/lmp_mpi[0x52f342]
[c122:28579] [ 8] /home/noura/LAMMPS/tests/src_v05/lmp_mpi[0x4041be]
[c122:28579] [ 9] /lib/x86_64-linux-gnu/libc.so.6(__libc_start_main+0xf5)[0x7f9b4d3f5b45]
[c122:28579] [10] /home/noura/LAMMPS/tests/src_v05/lmp_mpi[0x40427f]
[c122:28579] *** End of error message ***
[c122:28580] [ 0] /lib/x86_64-linux-gnu/libpthread.so.0(+0xf8d0)[0x7f5ac325f8d0]
[c122:28580] [ 1] /home/noura/LAMMPS/tests/src_v05/lmp_mpi[0x5eb733]
[c122:28580] [ 2] /home/noura/LAMMPS/tests/src_v05/lmp_mpi[0x5ebca9]
[c122:28580] [ 3] /home/noura/LAMMPS/tests/src_v05/lmp_mpi[0x64896a]
[c122:28580] [ 4] /home/noura/LAMMPS/tests/src_v05/lmp_mpi[0x64b8c1]
[c122:28580] [ 5] /home/noura/LAMMPS/tests/src_v05/lmp_mpi[0x64bb19]
[c122:28580] [ 6] /home/noura/LAMMPS/tests/src_v05/lmp_mpi[0x52f2ad]
[c122:28580] [ 7] /home/noura/LAMMPS/tests/src_v05/lmp_mpi[0x52f342]
[c122:28580] [ 8] /home/noura/LAMMPS/tests/src_v05/lmp_mpi[0x4041be]
[c122:28580] [ 9] /lib/x86_64-linux-gnu/libc.so.6(__libc_start_main+0xf5)[0x7f5ac2ec8b45]
[c122:28580] [10] /home/noura/LAMMPS/tests/src_v05/lmp_mpi[0x40427f]
[c122:28580] *** End of error message ***
--------------------------------------------------------------------------
mpirun noticed that process rank 11 with PID 28581 on node c122 exited on signal 11 (Segmentation fault).
--------------------------------------------------------------------------
