LAMMPS (16 Feb 2016)
Lattice spacing in x,y,z = 3 3 3
Created orthogonal box = (0 0 0) to (30 30 30)
  1 by 3 by 3 MPI processor grid
Created 4000 atoms
Neighbor list info ...
  1 neighbor list requests
  update every 1 steps, delay 0 steps, check no
  max neighbors/atom: 2000, page size: 100000
  master list distance cutoff = 5.73
  ghost atom cutoff = 5.73
  binsize = 2.865, bins = 11 11 11
Setting up Verlet run ...
  Unit style  : real
  Current step: 0
  Time step   : 1
Memory usage per processor = 2.07798 Mbytes
Step Temp E_pair E_mol TotEng Press Volume 
       0       283.13   -0.7732371            0    3374.2098    5710.0785        27000 
     100    281.12067   -3.6062071            0    3347.4251    5573.2081    27397.271 
     200     287.3238   -74.632462            0    3350.3417    5362.9678    28259.308 
     300    287.68209   -80.905343            0    3348.3398    5358.5822    29055.969 
     400    278.77975    -80.43531            0    3242.6916    5036.5192    29892.196 
     500    273.14981    -87.34072            0    3168.6759    4715.7698    30663.215 
     600    281.42626   -95.947946            0    3258.7261    4742.9415    31391.022 
     700    282.65515   -88.792823            0    3280.5299    4783.1854    32124.608 
     800    283.66132   -88.319865            0    3292.9966    4560.9046     32862.93 
     900    283.85139   -90.670993            0    3292.9111    4534.6677    33608.652 
    1000    283.16917   -82.063514            0    3293.3864    4402.1098    34360.811 
    1100    285.76267   -85.430812            0    3320.9344    4376.5386    35119.689 
    1200    288.30201   -91.609176            0    3345.0256    4173.0188     35893.23 
    1300    284.51676   -96.889036            0    3294.6245    4076.9604    36677.906 
    1400    274.92549   -87.016013            0    3190.1671    3874.2831    37461.244 
    1500    278.97676   -87.899588            0    3237.5758    3864.4077    38242.823 
    1600    282.08653   -82.525468            0    3280.0191    3788.3667     39044.86 
    1700    283.55711   -85.384678            0    3294.6897    3800.7974    39864.753 
    1800    283.55116   -84.940077            0    3295.0633    3703.7646    40699.568 
    1900    284.06454    -83.73771            0    3302.3853    3632.1571    41546.346 
    2000     286.7321   -76.167544            0    3341.7535     3584.046    42408.596 
    2100    287.68173   -80.426937            0     3348.814    3484.5336    43289.814 
    2200    281.52625   -85.620411            0    3270.2455    3394.0955    44184.226 
    2300    274.06116   -78.304264            0    3188.5759    3251.7786    45077.555 
    2400    280.92931   -86.476782            0    3262.2734    3240.6412    45975.686 
    2500    282.22233   -77.173261            0    3286.9901    3217.6553    46900.434 
    2600    283.24752   -79.545609            0    3296.8383    3209.9342     47846.07 
    2700    283.95249   -81.802123            0    3302.9852    3088.4714     48809.62 
    2800    284.81465   -77.670107            0    3317.3943    3051.5166    49789.415 
    2900     287.6222   -73.869439            0    3354.6619    3058.2342     50787.65 
    3000    290.45804   -86.272703            0    3376.0625    2983.2635    51809.801 
    3100    278.89894   -71.504014            0    3253.0437    2787.6732    52849.603 
    3200     273.4031    -70.37385            0     3188.662    2731.9275    53879.034 
    3300    278.19607   -63.654992            0    3252.5143    2683.8009    54919.464 
    3400    282.03013   -75.641097            0    3286.2313    2692.4822     55989.97 
    3500    283.83294   -73.891663            0    3309.4707    2668.3061    57087.973 
    3600    283.75028   -68.243042            0    3314.1339    2631.0468    58207.194 
    3700    284.56919   -73.525951            0    3318.6126    2553.6831    59347.162 
    3800    286.71832    -64.56381            0    3353.1929    2550.7078    60509.369 
    3900    288.49459   -58.188199            0    3380.7421    2487.2788    61698.141 
    4000    280.76752    -60.68254            0    3286.1391    2414.2355    62908.535 
    4100    272.66748   -64.492726            0    3185.7744    2274.5206    64112.558 
    4200    278.89065   -66.517154            0    3257.9317    2285.1695    65321.159 
    4300     280.5882   -55.845313            0    3288.8389    2260.8717     66568.16 
    4400     283.6233   -58.113164            0    3322.7502    2240.1935    67847.131 
    4500    284.87728    -65.19551            0    3330.6156    2213.7164     69154.57 
    4600    283.91873    -65.74728            0    3318.6377    2171.1669    70484.226 
    4700    284.68074   -60.843712            0    3332.6246    2106.7887    71831.733 
    4800    288.03181   -60.287256            0    3373.1267    2119.8834    73208.713 
    4900    283.78445   -62.739868            0    3320.0444     2051.217    74617.884 
    5000    273.13817   -56.051198            0    3199.8267    1938.2929    76029.262 
    5100    276.95686    -52.01629            0    3249.3814    1924.5785    77435.664 
    5200    281.47925   -53.976206            0    3301.3294    1921.0578    78886.291 
    5300    283.26119   -50.516376            0    3326.0305    1886.5548    80378.698 
    5400    284.92928   -62.906901            0     3333.524    1854.4105    81902.879 
    5500    282.63348   -51.496336            0    3317.5681    1808.4263    83452.661 
    5600    284.41304     -54.5355            0    3335.7417    1779.4417    85024.499 
    5700    286.94072   -53.160079            0    3367.2477    1776.0899    86631.918 
    5800    284.16789   -56.170515            0    3331.1844    1725.7673     88272.05 
    5900    275.61515   -54.534648            0    3230.8695    1658.5079    89921.512 
    6000    277.05278   -52.730265            0    3249.8108    1627.9857    91569.259 
    6100    282.47922   -54.888956            0    3312.3366    1623.0014    93258.912 
    6200      283.676   -60.064831            0    3321.4267    1619.2732      95000.2 
    6300    283.33687   -55.308577            0    3322.1404    1572.6025    96774.736 
    6400    284.79551   -58.625368            0     3336.211    1553.2714    98575.537 
    6500    286.67835   -55.697917            0    3361.5824     1540.223    100414.61 
    6600    287.50717    -53.83345            0    3373.3266    1511.1176    102295.42 
    6700    284.61788   -47.224355            0    3345.4946     1463.693    104210.27 
    6800    279.11384   -50.853782            0    3276.2556     1420.748    106141.17 
    6900    280.29464   -51.604631            0    3289.5802    1392.0803    108078.84 
    7000    284.83227   -56.050883            0    3339.2236    1395.4891    110062.97 
    7100    282.35896   -47.256882            0    3318.5352    1361.5191    112099.15 
    7200    282.17559   -51.365319            0    3312.2409    1335.2636    114162.82 
    7300    287.42119   -50.530772            0    3375.6043    1324.9295    116263.88 
    7400     286.3485   -53.206085            0    3360.1423    1299.3681    118421.76 
    7500    280.64468    -50.16563            0    3295.1917    1249.7431    120605.59 
    7600     279.4123   -49.275182            0    3281.3919    1216.4611       122799 
    7700    281.42622   -49.526925            0    3305.1466    1229.5718    125023.32 
    7800    281.95133   -43.923835            0    3317.0092    1203.0271    127302.41 
    7900    282.23972   -45.885721            0     3318.485    1172.2149    129624.86 
    8000    282.26772   -43.724227            0    3320.9802    1152.2515    131988.08 
    8100    282.46493   -51.420072            0    3315.6352     1134.539    134391.03 
    8200     280.0532   -36.205817            0    3302.1009    1112.6281    136830.88 
    8300    281.86368   -48.730479            0    3311.1577    1091.2829     139309.1 
    8400     283.0279   -45.002195            0    3328.7638    1075.1217    141837.17 
    8500    282.69709   -40.378995            0    3329.4437    1060.7571    144413.43 
    8600    281.25546   -33.917949            0    3318.7201    1032.4864    147033.82 
    8700    281.19864   -43.025815            0     3308.935    1018.6641    149691.27 
    8800    280.86955   -37.358423            0    3310.6795    990.11566    152392.95 
    8900    282.11458   -32.916482            0    3329.9625    980.95881    155142.23 
    9000    283.18099   -40.208896            0     3335.382    972.81104     157946.9 
    9100    281.43299   -32.262339            0    3322.4919    938.02693    160799.44 
    9200    280.85905   -33.174508            0    3314.7382    926.17959    163692.75 
    9300    280.89567   -33.091468            0    3315.2578    902.23579     166629.9 
    9400    281.38553   -31.607716            0    3322.5808    892.84104    169621.99 
    9500    282.26795   -33.351154            0     3331.356    888.32423    172668.81 
    9600    282.20117   -32.779896            0    3331.1312    865.59397    175771.43 
    9700     281.7603   -35.610936            0    3323.0449    849.71717    178924.38 
    9800     280.9515   -31.606064            0    3317.4087    835.05527    182124.13 
    9900    281.32147   -29.171042            0    3324.2538    817.76515    185378.73 
   10000    281.62909   -26.826597            0    3330.2652    806.28671    188691.87 
   10100    281.78608   -30.924037            0    3328.0392     795.4438    192066.43 
   10200    281.23373   -28.800386            0    3323.5787    772.43944    195498.18 
   10300    281.04655    -28.68792            0    3321.4598    763.46374    198982.95 
   10400    280.67012   -27.629414            0    3318.0313    753.03783     202524.5 
   10500    281.47178   -28.848824            0    3326.3678    742.40629    206126.25 
   10600    282.16816    -29.12904            0    3334.3886    728.20534    209797.02 
   10700    281.86093   -28.925511            0    3330.9299    718.52862    213534.81 
   10800    281.27323   -29.368589            0    3323.4812    698.16228    217331.01 
   10900     281.1631   -26.741228            0    3324.7959    685.96352    221185.31 
   11000    281.47092    -27.08893            0    3328.1174    676.19026    225105.64 
   11100    282.19295   -37.107026            0    3326.7061    670.92562    229095.47 
   11200    281.22636   -27.918232            0     3324.373    656.67618    233150.42 
   11300    281.61913   -28.204422            0    3328.7686    642.75088     237270.6 
   11400    281.28487    -25.38718            0    3327.6014    626.69229    241467.69 
   11500    280.92061   -21.093565            0     3327.553    619.52832     245730.6 
   11600    281.93806   -24.067378            0    3336.7075    613.86864    250067.37 
   11700    282.02504   -22.330673            0    3339.4809    600.29457     254489.4 
   11800    281.37899   -20.809052            0    3333.3014    585.03955    258986.21 
   11900    280.85128   -21.978705            0    3325.8414    576.72917    263551.99 
   12000    281.25791   -24.052972            0    3328.6142    568.31032    268185.02 
   12100    281.91787   -19.100511            0    3341.4336    561.48916    272905.16 
   12200     282.7065   -24.377336            0    3345.5574    552.13695    277714.09 
   12300    281.84131   -24.720287            0    3334.9012    537.97758     282604.8 
   12400    281.09482   -24.974986            0    3325.7482    529.72488    287564.58 
   12500     281.2248   -23.078115            0    3329.1944    519.08553    292602.58 
   12600    281.84113   -23.638667            0    3335.9807    510.69174    297729.63 
   12700    281.75667   -21.081184            0    3337.5315    502.29409    302950.92 
   12800    281.61437   -21.421914            0    3335.4944    495.81924    308258.42 
   12900    281.04226   -17.159249            0    3332.9374    489.30801    313655.19 
   13000    281.23087   -17.101938            0    3335.2429    478.29974    319141.06 
   13100    281.98589    -22.59746            0    3338.7475    471.80355    324724.21 
   13200    281.76778   -20.293807            0    3338.4512    462.30018    330404.94 
   13300    281.63252    -19.87456            0    3337.2581    456.49911    336177.03 
   13400     281.2319    -16.90648            0    3335.4507    443.56875    342043.43 
   13500    281.40323   -18.863643            0    3335.5358    437.25799    348005.65 
   13600    281.39097   -16.797269            0    3337.4561    430.59292     354069.5 
   13700    281.66346   -14.867786            0    3342.6337    424.89576    360240.28 
   13800    281.51842    -14.54873            0    3341.2238     417.1239    366520.52 
   13900    281.40225   -17.870596            0    3336.5173    410.25787    372903.63 
   14000    281.37394   -17.237274            0    3336.8131    401.81496    379387.76 
   14100    281.59103   -15.866775            0    3340.7714    395.86401    385983.22 
   14200    281.74411   -15.538273            0    3342.9246    390.49147    392693.51 
   14300    281.45577   -16.269941            0    3338.7559    383.27968    399519.92 
   14400    281.23539   -14.641095            0    3337.7577    375.71314    406450.22 
   14500    281.96701   -17.300003            0    3343.8199    371.42322    413496.29 
   14600    281.84022    -17.61337            0    3341.9952    363.27487    420670.84 
   14700    281.14391   -15.166367            0     3336.142    357.09738    427960.96 
   14800    281.06373   -13.262766            0    3337.0898    349.40315     435364.1 
   14900    281.73209   -17.228034            0    3341.0916     344.6738    442891.24 
   15000    281.43766   -15.104425            0    3339.7055    339.04839    450552.28 
   15100    281.79436    -18.00484            0     3341.057    335.73084    458336.04 
   15200    281.54561   -16.037609            0    3340.0591    327.38763    466251.75 
   15300    281.29724   -15.226064            0      3337.91    325.85369    474293.43 
   15400    281.59521   -16.735132            0    3339.9529    316.50028    482472.95 
   15500    281.79585   -13.868023            0    3345.2116    311.21353     490794.1 
   15600     281.9154    -14.78687            0    3345.7179    305.96641    499259.44 
   15700    281.45416    -16.39418            0    3338.6125    300.10668    507855.07 
   15800    280.76828   -11.020513            0    3335.8102    294.67475    516584.51 
   15900     281.8121   -15.226455            0    3344.0468    291.01395    525461.06 
   16000    282.07616   -14.341383            0    3348.0796     286.4673    534501.95 
   16100     281.4623   -11.314935            0    3343.7887    280.86103    543698.08 
   16200    281.27353   -13.433923            0    3339.4195    276.65045    553037.34 
   16300    281.15643   -12.520192            0    3338.9374    270.90555    562523.16 
   16400    281.58207   -14.775725            0    3341.7556    269.74609    572159.88 
   16500    281.61458   -13.983255            0    3342.9356    262.56599    581974.08 
   16600    281.65905   -13.637265            0    3343.8117    257.57085     591954.3 
   16700    281.59137   -14.468006            0    3342.1741    253.93665    602094.87 
   16800    281.14986   -10.224711            0    3341.1545    249.97332    612396.24 
   16900    281.58244   -10.240358            0    3346.2953    245.98237    622869.08 
   17000     281.6998   -10.470935            0    3347.4638    240.72568    633532.04 
   17100    281.77974   -13.827589            0    3345.0601      237.707    644367.27 
   17200    281.32902   -10.250981            0    3343.2639    233.49293    655378.94 
   17300    281.19455   -8.9920409            0    3342.9199    229.21037    666564.06 
   17400    281.56007   -12.493872            0    3343.7752    225.94227    677933.68 
   17500    281.65045   -10.535457            0     3346.811    221.37568    689499.11 
   17600    282.12887    -12.43646            0    3350.6128    218.03146    701258.43 
   17700    281.37237   -8.5603544            0    3345.4713    214.99764    713217.97 
   17800    281.07338   -11.091196            0    3339.3764    210.75104    725361.51 
   17900    281.33331   -9.6039514            0    3343.9621     206.9845    737694.16 
   18000    282.21691   -11.175677            0    3352.9231    203.80664    750242.22 
   18100    281.89204   -9.7397411            0    3350.4865      200.813    763020.38 
   18200    281.28517   -9.0061914            0    3343.9859    196.88463    776001.69 
   18300    281.23338   -9.2566819            0    3343.1181     193.7913    789181.66 
   18400    281.48791   -8.7597198            0    3346.6492    190.63435    802579.41 
   18500    281.99904   -11.954936            0    3349.5467    188.22085    816205.81 
   18600    281.70147   -10.952888            0    3347.0017    183.94875    830060.48 
   18700    281.19182   -8.1242776            0    3343.7552     181.2744    844132.62 
   18800    281.30489   -9.8792634            0    3343.3479    177.74803    858430.95 
   18900    281.52158   -10.099579            0    3345.7107    175.11181     872962.9 
   19000    281.73926   -9.1148655            0    3349.2902     173.0717    887747.33 
   19100    281.93173   -10.622873            0    3350.0765     169.4404    902784.36 
   19200    281.66412   -11.056556            0    3346.4528    167.40015     918063.2 
   19300    281.21927   -9.3233437            0    3342.8832    163.45513    933579.69 
   19400    281.41864   -8.8412129            0     3345.742    161.44857    949341.04 
   19500    281.79962   -8.8841604            0    3350.2404    158.96739    965373.93 
   19600    281.73452   -8.9784901            0    3349.3701     155.8007    981683.49 
   19700    281.56117   -10.241799            0    3346.0403    153.01582    998251.73 
   19800    281.46529   -10.785966            0    3344.3533     150.9943    1015077.3 
   19900    281.36002   -7.7360342            0    3346.1484    147.78987    1032184.8 
   20000    281.94035   -9.6292295            0    3351.1728     146.0929    1049577.8 
   20100    281.83728   -8.4209706            0    3351.1525    143.56551    1067277.3 
   20200    281.33779   -6.9862468            0    3346.6331    140.71704      1085254 
   20300    281.20972   -7.4183365            0    3344.6745    138.35608    1103502.8 
   20400    281.42186   -7.4400185            0    3347.1815    136.88367      1122040 
   20500    281.95798   -10.453808            0    3350.5585    134.54106    1140905.5 
   20600    281.60849    -7.928728            0    3348.9176    132.18855    1160090.6 
   20700    281.28525   -7.1580764            0    3345.8351    129.82475    1179576.3 
   20800    281.19642   -6.9114025            0    3345.0228    128.02541    1199360.8 
   20900    281.63185   -7.3969542            0    3349.7278    125.73098    1219467.9 
   21000    282.01097    -8.394597            0    3353.2493    124.22121    1239931.2 
   21100    281.81053   -8.7256293            0     3350.529    121.68328    1260737.8 
   21200     281.4363   -8.2571253            0    3346.5366    119.38199    1281870.4 
   21300    281.38151   -7.8836531            0    3346.2569    117.27605    1303332.2 
   21400    281.63466   -7.1614708            0    3349.9968    115.44784    1325142.4 
   21500    281.70692   -6.7769982            0    3351.2426    113.63069    1347326.9 
   21600    281.60297   -6.5885325            0    3350.1919    111.79629    1369873.5 
   21700    281.49151   -6.8424893            0    3348.6093    109.97276    1392782.8 
   21800     281.4934   -7.0438565            0    3348.4305    108.27324    1416049.9 
   21900    281.62048   -8.9478243            0    3348.0414    106.07222      1439687 
   22000    281.45612   -5.8537821            0    3349.1761    104.52307    1463712.8 
   22100    281.84369   -7.1619548            0     3352.488    103.03163      1488150 
   22200    281.55386   -5.4370869            0     3350.758    101.64778    1512996.7 
   22300    281.42635   -6.7108038            0    3347.9643    99.611566    1538230.4 
   22400    281.46612   -5.3506879            0    3349.7985    97.875863    1563857.2 
   22500    281.87005   -5.8038399            0    3354.1602    96.361063    1589912.4 
   22600    281.90762   -8.2097327            0    3352.2022    94.772254      1616409 
   22700    281.26447   -5.4291308            0    3347.3163    93.117461    1643321.2 
   22800    281.36874   -5.0600572            0    3348.9283    91.669881    1670641.1 
   22900    281.66065   -4.6808037            0    3352.7872    90.165448    1698422.3 
   23000    281.73945   -5.9508087            0    3352.4565     88.97241    1726675.6 
   23100    281.50059   -5.7489354            0    3349.8111    87.250101    1755380.6 
   23200    281.32793    -3.969569            0    3349.5324    85.689851    1784524.7 
   23300    281.63452   -5.1158579            0    3352.0407     84.50361      1814138 
   23400    281.74519   -4.5517448            0     3353.924    83.162736    1844246.7 
   23500    281.67823   -4.6115571            0     3353.066    81.771608    1874850.7 
   23600    281.41188   -3.7080189            0    3350.7945    80.315465    1905939.7 
   23700    281.39823    -4.383831            0    3349.9561    79.119864    1937510.8 
   23800    281.57849   -5.1080264            0    3351.3806    77.709333    1969587.5 
   23900    281.69704    -4.700201            0    3353.2016    76.437195    2002201.8 
   24000    281.69149   -5.5344464            0    3352.3012    75.320764    2035353.5 
   24100    281.42245   -4.9633527            0    3349.6653    74.027638    2069019.1 
   24200    281.44718   -5.2490927            0    3349.6743    73.056924    2103205.5 
   24300    281.71711   -5.5049037            0    3352.6362    71.612217    2137960.9 
   24400    281.82987   -4.9476383            0    3354.5375    70.510535    2173292.7 
   24500    281.64642   -4.8184518            0      3352.48    69.390669    2209188.4 
   24600    281.37538   -4.9313463            0    3349.1362    68.148085    2245637.3 
   24700    281.36582   -3.6379056            0    3350.3157    67.046493    2282657.3 
   24800    281.93338   -4.9037418            0    3355.8152    66.224218    2320280.1 
   24900    281.77411   -3.9156095            0    3354.9049    65.103994    2358547.1 
   25000    281.39605    -4.254581            0    3350.0593    63.951345    2397417.3 
   25100    281.65311   -6.6502752            0    3350.7279    62.792053    2436865.8 
   25200    281.73766    -3.356521            0    3355.0294    61.930253    2476950.8 
   25300    281.83117   -4.8350187            0    3354.6656    61.041776    2517714.1 
   25400    281.26536   -3.3208067            0    3349.4352    59.766346    2559119.1 
   25500    281.46365   -4.6136944            0     3350.506    58.865896    2601135.1 
   25600    281.76267   -3.2835732            0    3355.4005    57.951036    2643848.8 
   25700    281.94298    -5.086785            0    3355.7467    57.173103    2687281.4 
   25800    281.42679    -3.918541            0    3350.7618    56.206617      2731403 
   25900    281.40583   -4.1654407            0    3350.2651     55.16298    2776178.6 
   26000    281.72603   -3.9246381            0    3354.3227    54.539929    2821661.2 
   26100    281.87593     -5.01527            0    3355.0189    53.518445    2867915.3 
   26200    281.58529    -4.313451            0    3352.2562    52.578803    2914900.8 
   26300    281.45409   -4.0846237            0    3350.9212    51.768577    2962603.5 
   26400    281.58693   -4.1117018            0    3352.4776     50.88705    3011051.9 
   26500    281.73289   -4.7889317            0    3353.5401    50.144846    3060281.2 
   26600    281.54941   -3.4030171            0     3352.739    49.248237    3110314.4 
   26700    281.58368    -3.915723            0    3352.6348    48.530024    3161118.6 
   26800    281.67855   -4.6169347            0    3353.0644    47.727176      3212730 
   26900    281.65491   -4.2878814            0    3353.1118    46.894094    3265161.6 
   27000    281.70137    -5.714857            0    3352.2386    46.150479    3318429.6 
   27100    281.55319   -4.1576319            0    3352.0294    45.406438    3372521.2 
   27200    281.53043   -4.0730276            0    3351.8428    44.732533    3427459.2 
   27300    281.55118   -4.1477566            0    3352.0153    43.993841    3483270.9 
   27400    281.68647   -3.5053981            0    3354.2704    43.267887    3539967.5 
   27500    281.81735   -3.9970991            0    3355.3388    42.659703    3597580.3 
   27600     281.5392   -3.1791794            0    3352.8412    41.913018    3656106.7 
   27700    281.39661   -3.9657928            0    3350.3548    41.306438    3715521.4 
   27800    281.60649    -4.206189            0    3352.6162    40.670165    3775837.1 
   27900    281.82843   -3.4409448            0     3356.027    40.148911    3837137.7 
   28000    281.79197   -4.2638954            0    3354.7694     39.31154    3899456.1 
   28100    281.43395   -4.1892318            0    3350.5765    38.743771    3962709.9 
   28200    281.40374   -3.4040799            0    3351.0014    38.121521      4026895 
   28300    281.89643   -4.1077954            0    3356.1707    37.534781    4092111.7 
   28400    281.95432   -3.9392643            0    3357.0293    36.885702    4158422.7 
   28500    281.49197    -3.038024            0    3352.4192    36.240084    4225770.7 
   28600    281.31632   -3.0607529            0    3350.3027    35.671774    4294090.5 
   28700     281.6385   -2.8921081            0    3354.3118    35.127527    4363464.1 
   28800    282.02339   -3.6788829            0    3358.1131    34.663727    4433992.8 
   28900    281.72741   -3.0631516            0    3355.2007    34.000548    4505674.4 
   29000    281.35293   -3.0661903            0    3350.7337    33.465093    4578404.2 
   29100    281.33198   -2.5116252            0    3351.0385    32.948682    4652188.8 
   29200     281.7922   -3.4716855            0    3355.5644    32.509446    4727138.5 
   29300    281.88576   -3.0085275            0    3357.1429    31.919134    4803352.6 
   29400    281.70293    -4.074211            0    3353.8978    31.377249    4880762.8 
   29500    281.32694   -3.5203559            0    3349.9698    30.862402    4959294.3 
   29600    281.35036   -2.9034729            0    3350.8658    30.378817    5038984.6 
   29700    281.81578   -2.7893215            0    3356.5279    30.033095      5119946 
   29800    281.89993   -2.4620331            0    3357.8582    29.484622    5202265.7 
   29900    281.63814   -3.1592088            0    3354.0405    29.000968    5285868.6 
   30000    281.33501    -2.471031            0    3351.1153    28.496987    5370670.6 
   30100    281.48192   -2.4586993            0    3352.8788    28.079591    5456741.8 
   30200    281.76241   -2.3070752            0     3356.374    27.692927    5544190.8 
   30300    281.86539   -3.1429039            0    3356.7657    27.250441    5633047.6 
   30400    281.55201   -2.0111517            0    3354.1618    26.780168    5723261.9 
   30500    281.56424   -3.3937464            0    3352.9251    26.366338    5814809.7 
   30600    281.55658   -2.8556639            0    3353.3717    25.964839    5907773.7 
   30700    281.74602   -2.9350442            0    3355.5506    25.578743    6002175.5 
   30800    281.74513   -2.2601475            0    3356.2149    25.171699    6098061.3 
   30900    281.64471   -2.5242886            0    3354.7537    24.762405    6195418.1 
   31000    281.42609   -2.0059632            0    3352.6661    24.369539    6294216.4 
   31100    281.54145   -1.5225904            0    3354.5245    23.967121    6394492.7 
   31200    281.83647   -2.1288073            0     3357.435    23.662587    6496359.4 
   31300    281.72878   -2.2996564            0    3355.9805    23.224492    6599837.3 
   31400    281.59256   -3.5659927            0    3353.0904    22.903415    6704832.6 
   31500     281.5033   -1.9836399            0    3353.6087     22.52562    6811389.8 
   31600    281.72148   -1.6323432            0    3356.5608    22.190607    6919580.7 
   31700    281.81611   -2.7840493            0    3356.5371    21.807857    7029486.6 
   31800    281.60816   -2.7671095            0    3354.0751     21.48857    7141056.1 
   31900    281.56756   -2.1370956            0    3354.2213    21.117613    7254242.8 
   32000    281.68609    -2.238553            0    3355.5327    20.847459      7369135 
   32100    281.76405   -3.0063929            0    3355.6941    20.470687    7485820.4 
   32200    281.59235   -2.5315929            0    3354.1223    20.212445    7604274.6 
   32300    281.53269   -1.6510811            0    3354.2917    19.838615    7724466.4 
   32400    281.78351   -3.2569514            0    3355.6756    19.557404    7846489.2 
   32500    281.76909   -2.6751761            0    3356.0855     19.24705    7970407.3 
   32600    281.66097   -1.8921582            0    3355.5796     19.01616    8096163.2 
   32700    281.53581   -1.7228185            0    3354.2571     18.63523    8223794.2 
   32800    281.63942   -2.5288045            0    3354.6862    18.374433    8353290.2 
   32900    281.71872   -1.7041339            0     3356.456    18.072812    8484753.8 
   33000    281.79113   -1.8406349            0    3357.1827    17.813805    8618241.2 
   33100    281.61061   -1.5461617            0    3355.3254    17.512241    8753731.6 
   33200    281.51691   -2.0708728            0    3353.6837    17.241798      8891175 
   33300    281.64021   -1.8446124            0    3355.3797    16.973695    9030616.6 
   33400    281.83063   -1.8544827            0    3357.6398    16.754763    9172217.8 
   33500    281.79375   -2.0592913            0    3356.9954    16.464432    9315984.6 
   33600     281.5243   -2.3759362            0    3353.4668    16.188185      9461849 
   33700    281.54403   -2.8443007            0    3353.2336    15.949164    9609733.4 
   33800    281.76681   -1.3619644            0    3357.3715    15.716804      9759836 
   33900    281.94778   -1.8230237            0    3359.0677    15.508325    9912303.8 
   34000    281.57348   -1.6186591            0    3354.8102     15.22556     10067060 
   34100    281.39106   -1.4796197            0    3352.7748    14.997994     10223917 
   34200    281.76601    -1.736675            0    3356.9873    14.770928     10383044 
   34300    282.05416   -1.8937484            0     3360.265    14.626288     10544683 
   34400    281.72263   -1.5860229            0    3356.6208     14.32422     10708797 
   34500    281.36639   -2.4125621            0    3351.5478    14.075895     10875126 
   34600    281.55575   -2.1805911            0     3354.037    13.892197     11043714 
   34700    282.10859   -1.8796497            0    3360.9279    13.700698     11214901 
   34800    282.08909   -2.4513851            0    3360.1237    13.495481     11388843 
   34900    281.38297   -1.2686529            0    3352.8894    13.247118     11565231 
   35000    281.31912   -1.3325461            0    3352.0643     13.04316     11743863 
   35100     282.0178   -1.6119591            0    3360.1133    12.881039     11925122 
   35200    282.34043   -1.8652605            0    3363.7059    12.693645     12109385 
   35300    281.73672   -1.8894911            0    3356.4853    12.505538     12296398 
   35400    281.16511   -1.8494132            0    3349.7116     12.25688     12485713 
   35500    281.59272   -1.6761053            0    3354.9822    12.091887     12677502 
   35600    282.47374   -1.8377329            0    3365.3226    11.948949     12872376 
   35700    282.31115    -1.679963            0    3363.5422     11.75521     13070490 
   35800    281.34035   -1.2873314            0    3352.3626    11.557263     13271223 
   35900    281.03717   -1.1988435            0    3348.8371    11.356813     13474266 
   36000    282.18179   -2.1120373            0    3361.5681    11.224327     13680184 
   36100      282.967   -1.4784649            0    3371.5616    11.103112     13889761 
   36200    282.40146   -1.3284214            0    3364.9702    10.901863     14102679 
   36300    281.29887   -2.6111056            0    3350.5444    10.694806     14318111 
   36400    280.96327   -1.9990262            0     3347.156    10.533874     14535823 
   36500    282.67797   -1.2620652            0    3368.3327    10.429393     14756707 
   36600    283.91039   -1.1885674            0    3383.0969    10.331481     14981941 
   36700    283.18075    -1.142146            0    3374.4458    10.137617     15210958 
   36800    286.41762   -1.2708776            0    3412.9014    10.098134     15442794 
   36900    290.52178  -0.76016617            0    3462.3348    10.150778     15681001 
   37000    281.37612   -1.0823078            0     3352.994    9.6223874     15923118 
   37100    277.45382   -1.9829119            0    3305.3386    9.3466932     16162228 
   37200    281.55997   -1.0591477            0    3355.2088    9.3630422     16402679 
   37300    282.12218   -1.0078859            0    3361.9616     9.227229     16649476 
   37400    282.20809   -1.2636233            0    3362.7301    9.0918496     16900667 
   37500    284.09437   -1.0011334            0    3385.4775    9.0324816     17155654 
   37600     286.1305    -1.044005            0    3409.7057    8.9463962     17415589 
   37700    288.56746   -0.8755089            0    3438.9235    8.8889807     17680641 
   37800     287.7939  -0.73661879            0    3429.8413    8.7480141     17950915 
   37900    278.37761  -0.80462759            0    3317.5287    8.3206021     18222300 
   38000    276.89355  -0.98812426            0    3299.6548    8.1546407     18490286 
   38100      282.616  -0.82668738            0    3368.0293    8.2166925     18762272 
   38200     282.4476  -0.96431131            0    3365.8843    8.0782809     19042333 
   38300    282.94293   -1.0130422            0    3371.7401    7.9718105     19326760 
   38400    285.14452   -1.0076251            0    3397.9891    7.9213069     19615500 
   38500    286.76759   -1.0000223            0    3417.3441    7.8472614     19909879 
   38600    286.59907  -0.73427456            0    3415.6009    7.7239288     20209304 
   38700    281.81741    -1.260026            0    3358.0767    7.4810782     20511500 
   38800    277.84437    -1.737241            0    3310.2398    7.2787198     20812697 
   38900    283.23697  -0.96942403            0    3375.2887    7.3046871     21115776 
   39000    284.55551  -0.74507303            0    3391.2305     7.232672     21427964 
   39100    282.07499   -1.0296687            0    3361.3774    7.0681952     21745521 
   39200    282.54338   -1.0017976            0    3366.9886     6.977428     22064892 
   39300    288.85502  -0.71732104            0    3442.5094    7.0265967     22390322 
   39400    284.74421  -0.78820872            0    3393.4366      6.82463     22724216 
   39500    279.24605   -1.4575617            0    3327.2278    6.6010272     23057712 
   39600    279.96236  -0.97677388            0    3336.2471    6.5201087     23390323 
   39700     280.6868  -0.70213122            0    3345.1573    6.4428675     23728067 
   39800    282.04353  -0.79122475            0    3361.2408    6.3816364     24071743 
   39900    284.47582  -0.86995485            0    3390.1556    6.3528181     24422026 
   40000    284.54703  -0.97770203            0    3390.8967    6.2556346     24779085 
   40100      283.516  -0.69027925            0    3378.8939    6.1423588     25140253 
   40200    285.78236  -0.76055908            0    3405.8393    6.1026988     25505192 
   40300    285.92372   -1.0838255            0     3407.201    6.0206654     25876867 
   40400     281.0155  -0.97479546            0    3348.8028    5.8350631     26252169 
   40500    277.90169   -0.7674559            0    3311.8928    5.6846341     26625973 
   40600    284.72074  -0.75751216            0    3393.1875    5.7424857     27003195 
   40700    284.70906   -0.8682469            0    3392.9376    5.6612362     27392327 
   40800    281.30945  -0.75553681            0     3352.526    5.5239371     27786292 
   40900    282.24697  -0.96124688            0    3363.4958    5.4559296     28180940 
   41000     288.0447  -0.69440494            0    3432.8731       5.4888     28583338 
   41100      283.933  -0.66708887            0     3383.888    5.3335057     28995670 
   41200    278.87455  -0.89657437            0    3323.3604    5.1652445     29407126 
   41300    284.69411  -0.76432532            0    3392.8633    5.2092539     29817891 
   41400    287.18686  -0.99657328            0    3422.3453    5.1738949     30242079 
   41500    280.95586  -0.74730413            0    3348.3194    4.9888291     30673238 
   41600    278.63633  -0.66380497            0    3320.7535    4.8796277     31100933 
   41700    285.00283   -0.7929703            0    3396.5147     4.922708     31532281 
   41800    284.30637   -1.2959323            0    3387.7097    4.8430204     31976398 
   41900    281.13215  -0.84679002            0    3350.3213    4.7306732     32424912 
   42000    282.54614   -1.2314978            0    3366.7918    4.6806085     32874272 
   42100    288.75559  -0.72478306            0    3441.3167    4.7182487     33332902 
   42200    284.61408  -0.63396979            0    3392.0397    4.5859709     33803337 
   42300    280.44504  -0.69549593            0    3342.2822    4.4568099     34272735 
   42400    280.93471    -1.078623            0     3347.736    4.4040459     34740843 
   42500    283.25709  -0.88972735            0    3375.6082    4.3865075     35215682 
   42600    282.38817   -0.9155223            0    3365.2248    4.3131797     35699464 
   42700     281.3901  -0.98896343            0    3353.2541    4.2350939     36187614 
   42800    282.76597   -1.0218408            0    3369.6219    4.1977229     36679895 
   42900    285.15325  -0.72332296            0    3398.3774    4.1770015     37180331 
   43000    287.49591  -0.63765069            0    3426.3882    4.1546562     37690547 
   43100    291.67831  -0.72746323            0    3476.1537    4.1574721     38212291 
   43200    282.50616  -0.88643413            0    3366.6602     3.971863     38741703 
   43300    276.98898  -0.97943052            0    3300.8011    3.8456905     39259904 
   43400    280.88542  -0.70253719            0    3347.5246    3.8539068     39774915 
   43500    282.70538   -1.0007506            0    3368.9207    3.8224884     40302733 
   43600    282.62125  -0.88029089            0    3368.0383    3.7692059     40841117 
   43700    283.66896  -0.73078431            0    3380.6768    3.7332291     41385895 
   43800    287.80772  -0.64804931            0    3430.0947    3.7378025     41939159 
   43900    290.21358  -0.63230064            0    3458.7888    3.7187401     42506409 
   44000    279.01619  -0.70759816            0    3325.2378     3.527445     43079051 
   44100    275.42489  -0.65115774            0     3282.485     3.437874     43635372 
   44200    280.92408  -0.75891146            0     3347.929     3.462275     44191281 
   44300    283.11366  -0.94112365            0    3373.8472    3.4444128     44764087 
   44400    283.75992  -0.94261074            0    3381.5493    3.4083346     45349566 
   44500    284.24783    -1.007394            0    3387.3004    3.3711449     45942391 
   44600    287.03257  -0.94257756            0    3420.5601    3.3623192     46542200 
   44700    288.06502  -0.78053036            0    3433.0292    3.3328933     47153374 
   44800    279.75907  -0.67620828            0    3334.1245    3.1964597     47768440 
   44900    275.25076  -0.85540889            0     3280.205    3.1040462     48369606 
   45000    282.23062  -0.97818633            0     3363.284    3.1414381     48969804 
   45100    282.75165  -0.99955807            0    3369.4734    3.1068205     49589228 
   45200    283.03428    -0.976229            0    3372.8658    3.0703483     50219034 
   45300    284.66928  -0.94408931            0    3392.3875    3.0491443     50855848 
   45400    286.25398   -1.0066254            0     3411.215    3.0273229     51501910 
   45500    285.58909  -0.92510889            0    3403.3709    2.9825136     52156552 
   45600    280.63205  -0.89628477            0    3344.3105    2.8943331     52812509 
   45700     278.4393  -0.87528802            0    3318.1934    2.8368331     53460664 
   45800    284.66854  -0.86974224            0    3392.4531    2.8653816     54112207 
   45900    284.88919  -0.88741393            0    3395.0657    2.8325212     54783469 
   46000    281.53521  -0.91047115            0    3355.0623    2.7650016     55461651 
   46100    281.73626  -0.95584091            0    3357.4135    2.7337297     56136509 
   46200    288.58761  -0.98523721            0    3439.0539    2.7667894     56821123 
   46300    284.67544   -1.0001131            0    3392.4049    2.6966325     57524601 
   46400    278.24988  -0.97194939            0    3315.8388     2.605075     58222059 
   46500    281.95717  -0.89457761            0     3360.108    2.6101313     58907860 
   46600    287.02139   -0.6833457            0    3420.6861    2.6276644     59611868 
   46700    282.21633  -0.71961933            0    3363.3722    2.5525644     60332524 
   46800    279.11203  -0.91688405            0    3326.1709    2.4930718     61045525 
   46900    284.53798  -0.99965842            0    3390.7668    2.5105053     61756038 
   47000     286.0926  -0.90108375            0     3409.397    2.4938698     62486512 
   47100    282.09379  -0.79191698            0    3361.8393    2.4300289     63226420 
   47200    280.49255  -0.67171078            0    3342.8723    2.3886049     63959455 
   47300    286.45886  -0.59335307            0    3414.0706    2.4118121     64693547 
   47400    289.45251  -0.54611433            0    3449.8029    2.4088017     65452877 
   47500     283.3987  -0.55103973            0     3377.635    2.3309558     66223440 
   47600    279.43337  -0.59291079            0    3330.3254    2.2723695     66978746 
   47700    282.68725  -0.67820139            0    3369.0271    2.2734523     67724954 
   47800    286.40094   -0.8725302            0     3413.101    2.2777008     68487496 
   47900    283.35033   -1.5706692            0    3376.0387    2.2286516     69265940 
   48000    280.81212  -0.72422636            0    3346.6291    2.1882419     70039833 
   48100    281.30475   -1.0130331            0    3352.2126    2.1647198     70808812 
   48200    281.91244  -0.85258391            0    3359.6168    2.1449336     71582730 
   48300     282.1597   -0.6842518            0    3362.7326    2.1236538     72363844 
   48400    283.07665   -1.4974645            0    3372.8497    2.1072071     73151338 
   48500    284.69959  -0.63889997            0    3393.0541    2.0969192     73946838 
   48600    291.58917  -0.66515025            0    3475.1534    2.1244959     74756789 
   48700    288.51138  -0.97869143            0    3438.1518    2.0792424     75592987 
   48800    279.11937   -0.6431615            0    3326.5322    1.9937469     76416179 
   48900    279.74685  -0.96556229            0    3333.6894    1.9737904     77208354 
   49000    283.66225  -0.66369729            0    3380.6639    1.9807166     78002743 
   49100    284.19176  -0.53093494            0    3387.1086    1.9640157     78816742 
   49200    282.45478  -0.54428449            0      3366.39    1.9318359     79639286 
   49300    283.81719  -0.72832611            0    3382.4462     1.921263     80459647 
   49400    288.96684  -0.93700801            0    3443.6227    1.9379975     81292606 
   49500    283.83379  -0.99806745            0    3382.3743    1.8826732     82143658 
   49600    277.19323   -0.6692933            0    3303.5459    1.8195406     82974863 
   49700    281.53478  -0.51943009            0    3355.4481    1.8303649     83781399 
   49800    284.98521  -0.56388228            0    3396.5338    1.8346924     84606531 
   49900    282.44315  -0.87055452            0    3365.9251    1.8003487     85450097 
   50000    281.23173  -0.65094968            0    3351.7042    1.7789674     86288255 
   50100    285.61217  -0.79389812            0    3403.7773    1.7855159     87124651 
   50200    287.99729  -0.51580082            0    3432.4866    1.7829956     87982409 
   50300    279.93008  -0.55337916            0    3336.2858    1.7160862     88849532 
   50400    273.12809  -0.86225705            0    3254.8954    1.6588874     89676909 
   50500    278.34047  -0.65978773            0    3317.2308    1.6791595     90474955 
   50600    282.19109  -0.74384912            0    3363.0472     1.683576     91292440 
   50700      285.314  -0.50048045            0    3400.5164    1.6867025     92139100 
   50800    284.51561  -0.59205963            0    3390.9078    1.6662204     93006774 
   50900    280.44591  -0.99856691            0    3341.9894    1.6282805     93871183 
   51000    279.01092  -0.96335486            0    3324.9192    1.6046808     94712492 
   51100    285.92967  -0.57178339            0     3407.784    1.6299312     95549221 
   51200    285.82602  -0.53216607            0    3406.5882    1.6147611     96415447 
   51300    280.56778  -0.98504429            0    3343.4557    1.5711842     97284813 
   51400    278.10717  -0.98115427            0    3314.1285    1.5440257     98125558 
   51500    286.83814  -0.52020146            0    3418.6649    1.5788746     98956768 
   51600    286.14216  -0.53972296            0     3410.349    1.5613398     99824288 
   51700    279.91487   -0.9917925            0    3335.6661     1.515033 1.0069373e+08 
   51800    278.93596  -0.86371454            0    3324.1253    1.4964029 1.0152916e+08 
   51900    287.46504  -0.48195689            0    3426.1759    1.5297484 1.0235992e+08 
   52000    285.32551  -0.64100952            0    3400.5131    1.5055065 1.0322678e+08 
   52100    280.50031  -0.65220467            0    3342.9842     1.470876 1.0408946e+08 
   52200    280.83626    -1.501878            0    3346.1392    1.4573061 1.0492286e+08 
   52300    288.90201    -0.485542            0    3443.3013    1.4880027 1.0575765e+08 
   52400    286.42165  -0.99881164            0    3413.2216    1.4635142 1.0662941e+08 
   52500    281.51163  -0.82500741            0    3354.8666    1.4263501 1.0749371e+08 
   52600    280.79919  -0.50153032            0    3346.6977    1.4119555 1.0832456e+08 
   52700    284.76424  -0.75351521            0    3393.7101    1.4210668 1.0914304e+08 
   52800    289.11962   -0.9876819            0    3445.3932    1.4321351 1.0998352e+08 
   52900    289.03983  -0.46556025            0    3444.9641     1.420277 1.1085477e+08 
   53000    279.42466  -0.69285996            0    3330.1215    1.3622707 1.1171878e+08 
   53100    277.75794  -0.96687575            0    3309.9799    1.3456301 1.1252142e+08 
   53200    284.34426  -0.59907349            0    3388.8582    1.3669014 1.132995e+08 
   53300    285.24667  -0.66243322            0    3399.5519    1.3615212 1.1410762e+08 
   53400     281.9545   -0.9254579            0    3360.0453    1.3376527 1.1492811e+08 
   53500    279.14541  -0.55043197            0    3326.9353    1.3138114 1.1572658e+08 
   53600    284.55066  -0.67835958            0    3391.2393    1.3302467 1.1650298e+08 
   53700    287.67464   -1.0176803            0    3428.1387    1.3365938 1.1730603e+08 
   53800    282.04109  -0.47237855            0    3361.5305    1.3005223 1.1812942e+08 
   53900    277.37368  -0.68994403            0    3305.6762    1.2704329 1.1891485e+08 
   54000    285.29344  -0.98119984            0    3399.7907    1.2988792 1.1966044e+08 
   54100    287.24068   -0.4455528            0    3423.5379    1.2991027 1.2044153e+08 
   54200    281.82392  -0.88308291            0    3358.5311    1.2660989 1.2124223e+08 
   54300    279.23315  -0.74610019            0    3327.7855    1.2465439 1.2200621e+08 
   54400    285.51688   -0.4550773            0    3402.9802    1.2671044 1.2274101e+08 
   54500    288.14798  -0.87587167            0    3433.9228     1.272338 1.2350758e+08 
   54600    283.43823  -0.51826849            0     3378.139    1.2421127 1.2429456e+08 
   54700    281.10356  -0.56548565            0    3350.2618    1.2244099 1.2504989e+08 
   54800    282.56439  -0.99569992            0    3367.2452    1.2243549 1.2577187e+08 
   54900    287.32934  -0.43804617            0    3424.6022    1.2373482 1.264922e+08 
   55000    292.92454  -0.95533767            0    3490.7812    1.2539774 1.2725013e+08 
   55100    283.77786  -0.57136825            0    3382.1343    1.2071274 1.2804647e+08 
   55200    278.12537  -0.89369377            0    3314.4328    1.1760121 1.2878057e+08 
   55300    282.42827  -0.96172999            0    3365.6565    1.1895298 1.2944347e+08 
   55400    286.22219  -0.43640969            0    3411.4063    1.1983078 1.3010986e+08 
   55500    283.78394  -0.94960413            0    3381.8286    1.1818401 1.3080132e+08 
   55600    277.26025  -0.58663007            0    3304.4275    1.1486417 1.3147408e+08 
   55700    273.62619  -0.50988004            0    3261.1852     1.128438 1.3207793e+08 
   55800    283.76949   -0.9159078            0      3381.69    1.1665473 1.3263945e+08 
   55900    285.62061  -0.42965491            0    3404.2421    1.1675862 1.3325316e+08 
   56000    282.47861  -0.98828795            0    3366.2301    1.1493086 1.3390321e+08 
   56100     279.1387  -0.53510673            0    3326.8706    1.1301478 1.3453439e+08 
   56200    283.75596   -0.7073037            0    3381.7373     1.143637 1.3512929e+08 
   56300    288.65097  -0.83885055            0    3439.9555    1.1581863 1.3574708e+08 
   56400    283.54097  -0.44754889            0    3379.4344    1.1323074 1.3640267e+08 
   56500    279.90384  -0.67049251            0    3335.8558    1.1148952 1.3702462e+08 
   56600    281.22754   -0.4346438            0    3351.8706    1.1133459 1.3759453e+08 
   56700    283.03069  -0.93738892            0    3372.8618    1.1159984 1.3814645e+08 
   56800    283.99352  -0.52585519            0    3384.7506    1.1152593 1.3870254e+08 
   56900    283.90255  -0.61579333            0    3383.5762    1.1103628 1.3926472e+08 
   57000    282.63276  -0.72707889            0    3368.3287    1.1009594 1.3982233e+08 
   57100    281.69748  -0.46902909            0     3357.438     1.093217 1.4035944e+08 
   57200    283.90151   -1.1378586            0    3383.0417    1.0980986 1.4087562e+08 
   57300    286.46091  -0.42038568            0     3414.268    1.1035668 1.4139901e+08 
   57400     283.6403    -0.618035            0    3380.4479    1.0908113 1.4194071e+08 
   57500    276.48376  -0.43409748            0     3295.324    1.0572529 1.4244982e+08 
   57600    280.32085  -0.92330345            0     3340.574    1.0686918 1.4287777e+08 
   57700    286.53956  -0.48511452            0    3415.1407    1.0891713 1.4330202e+08 
   57800    283.96848  -0.70502924            0    3384.2729    1.0757675 1.4377358e+08 
   57900    280.34742  -0.59649031            0    3341.2175    1.0586417 1.4423979e+08 
   58000    281.80108  -0.53970312            0    3358.6022    1.0610377 1.4466382e+08 
   58100    290.15177  -0.75227688            0    3457.9321    1.0892418 1.4508773e+08 
   58200    286.38365   -0.4803709            0     3413.287     1.071582 1.4557531e+08 
   58300    280.89064  -0.90893835            0    3347.3803    1.0475548 1.4605452e+08 
   58400    281.44484  -0.43515399            0    3354.4604    1.0466989 1.4646877e+08 
   58500    284.21812  -0.96512333            0    3386.9886    1.0550591 1.4684731e+08 
   58600    285.59521  -0.42671513            0    3403.9422     1.056646 1.4723042e+08 
   58700    282.00224  -0.70651787            0    3360.8334    1.0425056 1.4762307e+08 
   58800    277.08836   -0.4178146            0    3302.5474    1.0200293 1.4797265e+08 
   58900    282.59337  -0.92356564            0    3367.6627    1.0393352 1.4825142e+08 
   59000    287.04365  -0.41622392            0    3421.2185    1.0526355 1.4854265e+08 
   59100    283.78679  -0.99809651            0     3381.814    1.0387321 1.4888226e+08 
   59200    279.53903  -0.43886403            0    3331.7389    1.0205051 1.4921031e+08 
   59300    283.26725  -0.89767644            0    3375.7214    1.0321691 1.4948445e+08 
   59400    291.32183  -0.44096782            0    3472.1908    1.0595054 1.4977757e+08 
   59500    284.15641   -0.9092515            0    3386.3088    1.0308569 1.5014658e+08 
   59600    279.58963  -0.46850437            0    3332.3124    1.0120297 1.5048453e+08 
   59700    282.26752  -0.77122554            0    3363.9308    1.0198559 1.5074654e+08 
   59800    287.23821  -0.48558133            0    3423.4684    1.0362413 1.5098906e+08 
   59900    285.01248  -0.75575465            0    3396.6669    1.0262246 1.5126839e+08 
   60000    274.85746   -0.5248609            0    3275.8474   0.98804173 1.5152365e+08 
   60100    280.11777  -0.62455764            0    3338.4519    1.0059704 1.516662e+08 
   60200    285.50465  -0.56527264            0    3402.7242    1.0245387 1.5178586e+08 
   60300     284.6398  -0.60538044            0    3392.3749    1.0203024 1.5195178e+08 
   60400     280.0093  -0.58707374            0    3337.1964    1.0024949 1.5213511e+08 
   60500    276.95398  -0.56035103            0    3300.8029   0.99067844 1.5227082e+08 
   60600    285.16021  -0.66188067            0    3398.5218    1.0194974 1.5234722e+08 
   60700     288.1235    -0.534522            0    3433.9723    1.0293174 1.5246965e+08 
   60800    282.03625   -0.6361562            0    3361.3091    1.0062798 1.5265783e+08 
   60900    279.18222   -0.5281279            0    3327.3963   0.99507444 1.5282074e+08 
   61000    283.43126  -0.69714363            0     3377.877    1.0094459 1.5292987e+08 
   61100    287.63355  -0.51034432            0    3428.1562     1.023681 1.5305014e+08 
   61200    279.77709  -0.66598378            0    3334.3495   0.99453509 1.5322158e+08 
   61300    274.97474  -0.50247594            0    3277.2677   0.97680682 1.5333363e+08 
   61400    283.56178  -0.76970987            0    3379.3602    1.0071682 1.5334575e+08 
   61500    286.92865  -0.48301061            0    3419.7809     1.018992 1.5337964e+08 
   61600    282.85814  -0.72039474            0     3371.022    1.0038257 1.5347448e+08 
   61700    278.27103  -0.49195893            0    3316.5709   0.98704935 1.5356304e+08 
   61800    283.41708  -0.78585989            0    3377.6193    1.0050336 1.5359294e+08 
   61900    290.37699  -0.49429576            0    3460.8747    1.0294331 1.5364782e+08 
   62000    285.20568  -0.67698357            0    3399.0487    1.0100325 1.5379872e+08 
   62100    281.10857   -0.5189026            0    3350.3682    0.9945013 1.5396493e+08 
   62200    281.68651  -0.68972148            0    3357.0865   0.99571091 1.5408474e+08 
   62300    287.04246  -0.51181957            0    3421.1087     1.014128 1.5417412e+08 
   62400    291.96212  -0.60387714            0    3479.6603    1.0305496 1.5431225e+08 
   62500    281.49471  -0.60438849            0    3354.8856   0.99215064 1.5453524e+08 
   62600    278.96628  -0.60419822            0    3324.7462   0.98213384 1.5470848e+08 
   62700    284.12761  -0.60995141            0    3386.2649   0.99976131 1.5479154e+08 
   62800    287.06336  -0.56308515            0    3421.3066    1.0096711 1.5486165e+08 
   62900     281.7809  -0.64125016            0    3358.2601   0.99045359 1.5495591e+08 
   63000    275.27182  -0.56969448            0    3280.7419   0.96735454 1.5499395e+08 
   63100    281.48407  -0.58758826            0    3354.7755   0.98975299 1.5490554e+08 
   63200    284.26168  -0.56091809            0    3387.9121    1.0003713 1.5477602e+08 
   63300    283.42789  -0.61885043            0    3377.9151   0.99816185 1.5465997e+08 
   63400    281.56625  -0.54558067            0    3355.7971    0.9923557 1.5454721e+08 
   63500    281.73969  -0.62578782            0    3357.7844   0.99378677 1.5441484e+08 
   63600    286.24769  -0.53291511            0    3411.6138    1.0106547 1.5427391e+08 
   63700    288.26135  -0.67827654            0    3435.4718    1.0182714 1.5418964e+08 
   63800    279.84853  -0.50368369            0    3335.3633   0.98868525 1.5417745e+08 
   63900    278.48908  -0.67997937            0    3318.9821   0.98411428 1.5413038e+08 
   64000    283.59784  -0.52055556            0    3380.0393    1.0029189 1.5402507e+08 
   64100    285.14601  -0.68432114            0    3398.3301    1.0089415 1.5393265e+08 
   64200    283.44088   -0.5242953            0    3378.1645    1.0032918 1.5388096e+08 
   64300    282.20563  -0.71581687            0    3363.2485   0.99907132 1.5384804e+08 
   64400    282.73335   -0.5034751            0    3369.7514    1.0012279 1.5381598e+08 
   64500     285.5187  -0.71183666            0    3402.7451      1.01117 1.5379365e+08 
   64600    292.35983  -0.46242796            0    3484.5425    1.0352081 1.538375e+08 
   64700     284.6949   -1.0601965            0    3392.5768    1.0065937 1.5402465e+08 
   64800    279.16743   -0.4642374            0    3327.2839   0.98576709 1.5426048e+08 
   64900    281.97477  -0.82411362            0    3360.3883    0.9943543 1.5445384e+08 
   65000    287.24171  -0.44674827            0     3423.549    1.0118285 1.5463723e+08 
   65100    284.95972  -0.91640677            0    3395.8774    1.0021902 1.5487956e+08 
   65200    275.03362  -0.45033308            0    3278.0218   0.96569074 1.5513645e+08 
   65300    277.73516  -0.84910439            0     3309.826   0.97423657 1.5527372e+08 
   65400     282.7276  -0.45537519            0     3369.731   0.99166626 1.5530009e+08 
   65500    285.59798  -0.87525689            0    3403.5267    1.0017596 1.5528706e+08 
   65600    283.74553  -0.43525404            0    3381.8851   0.99539965 1.5527667e+08 
   65700    277.46314  -0.92862897            0    3306.5039   0.97358308 1.5523744e+08 
   65800     278.3981  -0.45275797            0    3318.1248   0.97789105 1.5507548e+08 
   65900    288.53889  -0.90551191            0    3438.5529    1.0152649 1.5480395e+08 
   66000    286.03941   -0.4239208            0    3409.2401    1.0081785 1.5454934e+08 
   66100    280.94478  -0.98369648            0     3347.951   0.99196268 1.5429645e+08 
   66200    281.06397  -0.43339179            0     3349.922   0.99433091 1.5397409e+08 
   66300     286.5168  -0.97632794            0    3414.3782    1.0163111 1.5358082e+08 
   66400    294.05859   -0.4199774            0    3504.8347    1.0455141 1.5320956e+08 
   66500    284.81098  -0.91542756            0    3394.1054    1.0151943 1.5297361e+08 
   66600     280.3497   -0.4140373            0    3341.4272   0.99950666 1.5278929e+08 
   66700    282.62117  -0.97933626            0    3367.9383    1.0096115 1.5257989e+08 
   66800    286.69808  -0.43171086            0    3417.0837    1.0248844 1.523787e+08 
   66900    284.91388  -0.93677825            0    3395.3105    1.0202634 1.5225303e+08 
   67000    277.08972  -0.42146481            0    3302.5599   0.99178076 1.5218769e+08 
   67100    279.69618  -0.99755065            0    3333.0535    1.0020055 1.5208856e+08 
   67200    284.99096  -0.42316113            0     3396.743    1.0214645 1.5197993e+08 
   67300    284.38465  -0.99344747            0    3388.9453    1.0197243 1.5194414e+08 
   67400    281.91505  -0.42943485            0    3360.0711    1.0103161 1.5199735e+08 
   67500    280.89935  -0.99244829            0    3347.4007    1.0058838 1.521226e+08 
   67600    285.92619  -0.56303827            0    3407.7513    1.0223826 1.5232413e+08 
   67700     289.2984    -1.035359            0    3447.4766     1.032118 1.5269688e+08 
   67800    281.17475  -0.42649794            0    3351.2495   0.99892494 1.5332703e+08 
   67900    278.14483  -0.97996918            0    3314.5785   0.98303274 1.5414337e+08 
   68000    281.47195  -0.42967645            0     3354.789   0.98865817 1.5508289e+08 
   68100    283.34246  -0.98169389            0    3376.5339   0.98856263 1.5614765e+08 
   68200    283.27497  -0.41358925            0    3376.2975   0.98098798 1.5729852e+08 
   68300     283.3906  -0.97888359            0    3377.1105   0.97492776 1.5843822e+08 
   68400    287.89876  -0.39224884            0    3431.4357   0.98342917 1.5947212e+08 
   68500    288.30678  -0.63714415            0    3436.0544   0.98117599 1.6038281e+08 
   68600    279.67783  -0.40098914            0    3333.4313   0.94558418 1.6111634e+08 
   68700    278.98162  -0.95799057            0    3324.5753   0.94147776 1.6153916e+08 
   68800    284.13307  -0.40860038            0    3386.5313    0.9574841 1.6164864e+08 
   68900    285.18584  -0.89537987            0    3398.5938   0.96162309 1.6153764e+08 
   69000    283.56902  -0.45990527            0    3379.7564   0.95793315 1.612471e+08 
   69100    282.32658  -0.69080634            0    3364.7153   0.95643838 1.6077633e+08 
   69200     282.2912  -0.52818394            0    3364.4562    0.9601975 1.6013591e+08 
   69300    283.35489  -0.57854054            0    3377.0852   0.96844789 1.5936659e+08 
   69400    284.28707  -0.61825177            0    3388.1574   0.97671597 1.5853522e+08 
   69500    282.66714  -0.50817521            0    3368.9574   0.97630941 1.577046e+08 
   69600    280.30076  -0.70503818            0    3340.5527   0.97305523 1.5689595e+08 
   69700    281.83475  -0.49385382            0    3359.0495   0.98333619 1.5611756e+08 
   69800    288.70386  -0.76124701            0    3440.6636    1.0116947 1.5542853e+08 
   69900    287.64053  -0.52111681            0    3428.2286    1.0113128  1.54921e+08 
   70000    279.43496  -0.90563993            0    3330.0316   0.98477944 1.5455163e+08 
   70100    281.09153  -0.45590022            0     3350.228   0.99290029 1.542091e+08 
   70200    285.44514  -0.86658852            0    3401.7136    1.0101616 1.5391202e+08 
   70300    285.58062  -0.43880836            0    3403.7563    1.0120326 1.5371237e+08 
   70400    276.20979  -0.90933266            0     3291.583   0.97957288 1.5358636e+08 
   70500    277.18051  -0.47005005            0    3303.5936   0.98412815 1.5341694e+08 
   70600    283.71905   -0.7997606            0    3381.2049     1.008548 1.5322153e+08 
   70700    284.84513   -0.4621157            0    3394.9657    1.0135153 1.5309002e+08 
   70800    282.55034  -0.82706335            0    3367.2463    1.0056337 1.5303353e+08 
   70900    278.59097   -0.4744143            0    3320.4022   0.99177617 1.5300846e+08 
   71000    278.94455  -0.74987425            0    3324.3415   0.99326973 1.5295837e+08 
   71100    287.45786  -0.48163658            0    3426.0906    1.0240468 1.5290425e+08 
   71200    286.78049  -0.78792192            0    3417.7099    1.0212573 1.5294789e+08 
   71300    280.25124  -0.47421344            0    3340.1933    0.9972859 1.5307029e+08 
   71400    280.07203   -0.7602605            0     3337.771   0.99584737 1.531794e+08 
   71500    283.22356  -0.48690229            0    3375.6114    1.0065653 1.5326711e+08 
   71600     283.7675  -0.75461192            0    3381.8275     1.007712 1.5337373e+08 
   71700    283.00897  -0.48147928            0    3373.0589    1.0042379 1.5350634e+08 
   71800    282.32316  -0.76081921            0    3364.6044    1.0007788 1.5365025e+08 
   71900     283.2892  -0.47956557            0    3376.4012    1.0033617 1.5379278e+08 
   72000    286.12476  -0.78154417            0    3409.8998    1.0123006 1.5394806e+08 
   72100    284.47228  -0.45774955            0    3390.5256    1.0052484 1.5414729e+08 
   72200    278.78018  -0.83026083            0    3322.3018   0.98369948 1.5435759e+08 
   72300    279.74611   -0.4736979            0    3334.1725   0.98628545 1.5449851e+08 
   72400    288.70386  -0.81542004            0    3440.6095    1.0171853 1.5459144e+08 
   72500    286.57462  -0.43750978            0    3415.6063    1.0087792 1.5474518e+08 
   72600     282.1136  -0.93186568            0    3361.9355   0.99182391 1.5493819e+08 
   72700    281.37199  -0.43564311            0    3353.5914   0.98818946 1.5510078e+08 
   72800    284.22546  -0.95090758            0    3387.0903   0.99749473 1.552166e+08 
   72900    291.28548  -0.40992263            0    3471.7886    1.0215207 1.5533044e+08 
   73000    290.58619  -0.90366822            0     3462.959    1.0187192 1.5554105e+08 
   73100    280.71825  -0.40439155            0      3345.83   0.98131144 1.5582787e+08 
   73200    280.79847  -0.78671923            0    3346.4038   0.98166792 1.5605374e+08 
   73300    285.36161   -0.3977194            0    3401.1867    0.9951527 1.5620364e+08 
   73400    287.00145  -0.64738686            0    3420.4844    1.0020715 1.5633612e+08 
   73500    278.80001  -0.43337931            0    3322.9351   0.97061058 1.5646486e+08 
   73600    276.52985  -0.62636736            0    3295.6811   0.96471129 1.5647382e+08 
   73700    282.70022  -0.39908159            0    3369.4609   0.98517407 1.5631366e+08 
   73800    284.74393  -0.73359625            0    3393.4879    0.9956043 1.5605831e+08 
   73900     283.4687  -0.40293412            0    3378.6176   0.99146337 1.5574406e+08 
   74000    280.05363  -0.89200373            0    3337.4199    0.9830666 1.5535341e+08 
   74100    276.96483  -0.41656778            0    3301.0761   0.97439187 1.5483401e+08 
   74200    283.82574  -0.76925646            0    3382.5072    1.0045191 1.5415581e+08 
   74300    289.13075  -0.40117885            0    3446.1123    1.0265099 1.534325e+08 
   74400    283.83284  -0.96570502            0    3382.3953    1.0127461 1.527742e+08 
   74500    280.89352  -0.41327776            0    3347.9103    1.0056702 1.5214761e+08 
   74600     282.8797  -0.87238506            0     3371.127    1.0180895 1.5153393e+08 
   74700    284.77807  -0.40760006            0    3394.2209    1.0274465 1.5098358e+08 
   74800    282.18027  -0.80428118            0    3362.8577    1.0225326 1.5054364e+08 
   74900    275.06545  -0.41485847            0    3278.4367   0.99769216 1.5018104e+08 
   75000    281.35098   -0.7190528            0    3353.0577    1.0247403 1.4982458e+08 
   75100    286.41047  -0.40677342            0    3413.6803    1.0431754 1.4955981e+08 
   75200    284.15519  -0.82171491            0    3386.3819    1.0370065 1.4947026e+08 
   75300    280.12859  -0.41755283            0    3338.7878    1.0204561 1.4953422e+08 
   75400     281.1894  -0.99946878            0    3350.8511    1.0235572 1.4970088e+08 
   75500    290.56456  -0.41498468            0    3463.1899    1.0551885 1.5000157e+08 
   75600    286.07715  -0.99417367            0    3409.1196    1.0355922 1.505484e+08 
   75700    279.56194  -0.42750091            0    3332.0233     1.006605 1.5128414e+08 
   75800    280.78084   -1.0227353            0    3345.9577    1.0056966 1.5208854e+08 
   75900    284.67334  -0.43000394            0    3392.9501    1.0139822 1.5293005e+08 
   76000    284.44129  -0.97956145            0    3389.6345    1.0074674 1.5381043e+08 
   76100    282.56831  -0.42317802            0    3367.8644   0.99513171 1.5467498e+08 
   76200    282.20491  -0.99915418            0    3362.9566   0.98910204 1.5544919e+08 
   76300    283.58024  -0.43238195            0    3379.9176   0.98959194 1.5609642e+08 
   76400    287.65414  -0.98009053            0    3427.9319    1.0010747 1.5662659e+08 
   76500      290.277  -0.39421398            0     3459.783    1.0065555 1.570953e+08 
   76600    280.95464  -0.61123985            0    3348.4409   0.97368556 1.5751565e+08 
   76700    278.84026  -0.40397116            0    3323.4443   0.96274518 1.5776998e+08 
   76800    284.06966  -0.67163515            0    3385.5124   0.98230049 1.5783698e+08 
   76900    286.49162  -0.48709578            0    3414.5673   0.98887949 1.5780513e+08 
   77000    282.94495   -1.1890272            0    3371.5882   0.97761572 1.5771951e+08 
   77100    276.76444  -0.44849886            0    3298.6554   0.95696157 1.5753583e+08 
   77200     269.2319  -0.93359202            0    3208.3804   0.93404889 1.5716374e+08 
   77300    279.73536  -0.40645407            0    3334.1115    0.9733347 1.565544e+08 
   77400    285.47089  -0.91033277            0    3401.9768   0.99861327 1.558769e+08 
   77500     285.6705  -0.40854067            0     3404.858    1.0022723 1.5526097e+08 
   77600    280.69504  -0.99842025            0    3344.9593   0.98862673 1.5472408e+08 
   77700    279.37759  -0.42172041            0    3329.8316   0.98685044 1.5421109e+08 
   77800    286.92569  -0.98926513            0    3419.2393    1.0172796 1.5372324e+08 
   77900    290.68256  -0.41562705            0    3464.5958    1.0324325 1.5336998e+08 
   78000    283.33169  -0.96609453            0    3376.4211    1.0075814 1.5318496e+08 
   78100    282.10168  -0.43222959            0     3362.293    1.0039148 1.5306756e+08 
   78200     283.2757  -0.97831826            0    3375.7415    1.0087429 1.5298512e+08 
   78300    284.76152  -0.42740188            0    3394.0038    1.0141594 1.5295097e+08 
   78400    283.73111  -0.96420282            0    3381.1842    1.0103419 1.529802e+08 
   78500    278.92644  -0.43465632            0    3324.4408   0.99274408 1.5304686e+08 
   78600    279.55129   -1.0042835            0    3331.3196   0.99501328 1.5308572e+08 
   78700    287.78874  -0.42349652            0    3430.0929    1.0238497 1.5311452e+08 
   78800    286.71281  -0.97256468            0    3416.7186    1.0192954 1.532338e+08 
   78900    281.70209  -0.43206177            0      3357.53    1.0001358 1.5342831e+08 
   79000    281.43137  -0.97735985            0    3353.7575   0.99800175 1.536244e+08 
   79100     283.1241  -0.42655104            0    3374.4862    1.0027059 1.5380834e+08 
   79200    284.19736   -0.9657705            0    3386.7405    1.0053094 1.5400062e+08 
   79300    282.91651  -0.43238505            0    3372.0058   0.99934458 1.5421194e+08 
   79400    277.49569  -0.96695855            0    3306.8536   0.97898983 1.5441118e+08 
   79500    280.02558  -0.42720259            0    3337.5504   0.98711903 1.5452646e+08 
   79600    287.09076    -1.951461            0    3420.2449    1.0119681 1.5459199e+08 
   79700    285.46986  -0.43493902            0    3402.4398    1.0051843 1.5469991e+08 
   79800     279.5918  -0.91397907            0    3331.8928   0.98361583 1.5483006e+08 
   79900    279.80535  -0.43811026            0    3334.9143   0.98396868 1.5489829e+08 
   80000     291.6804  -0.87012433            0    3476.0359    1.0255267 1.5491948e+08 
   80100    287.62794  -0.46733337            0    3428.1323     1.010584 1.5503414e+08 
   80200    281.01715  -0.74399195            0    3349.0534   0.98615507 1.5520712e+08 
   80300    280.48692  -0.48547944            0    3342.9914   0.98355084 1.5533748e+08 
   80400    285.72063  -0.71686407            0    3405.1472    1.0013661 1.5540921e+08 
   80500    289.03411  -0.51552965            0    3444.8461    1.0125009 1.5549349e+08 
   80600    278.95618  -0.62093377            0    3324.6091   0.97629027 1.5562885e+08 
   80700    277.53472  -0.53967155            0    3307.7462   0.97097862 1.5568771e+08 
   80800    284.33393   -0.6281386            0    3388.7061   0.99515092 1.556235e+08 
   80900    286.23021  -0.57256396            0    3411.3658    1.0024793 1.555193e+08 
   81000     282.3587   -0.5629063            0     3365.226   0.98963766 1.5540679e+08 
   81100    277.73178  -0.60324577            0    3310.0317   0.97452332 1.5522739e+08 
   81200    278.79552  -0.59180937            0    3322.7231   0.98032594 1.5490053e+08 
   81300    287.98056  -0.58621441            0    3432.2168    1.0156625 1.5443937e+08 
   81400    287.03137  -0.52925252            0    3420.9591    1.0154508 1.5396598e+08 
   81500    280.44179  -0.65650283            0    3342.2824   0.99517571 1.5348724e+08 
   81600     280.7273   -0.5489203            0    3345.7933   0.99988534 1.5292579e+08 
   81700    285.59936  -0.62758804            0    3403.7908    1.0214537 1.5229108e+08 
   81800    289.13584  -0.52689534            0    3446.0473    1.0383439 1.516758e+08 
   81900    281.97241  -0.80818717            0    3360.3761    1.0159376 1.5115319e+08 
   82000    278.37483   -1.2935137            0    3317.0066    1.0059537 1.506598e+08 
   82100    283.70093  -0.60046117            0    3381.1882    1.0290851 1.5015696e+08 
   82200    288.01779   -0.5854086            0    3432.6613    1.0477005 1.4973609e+08 
   82300    282.53429  -0.58234615            0    3367.2997     1.029518 1.494785e+08 
   82400     277.4176  -0.67795708            0    3306.2118    1.0118252 1.4933094e+08 
   82500    280.69459   -0.5038031            0    3345.4485    1.0245164 1.4923523e+08 
   82600    284.25905  -0.77540922            0    3387.6662    1.0374107 1.4924175e+08 
   82700    285.05414  -0.47244227            0    3397.4468    1.0391618 1.4942052e+08 
   82800    280.75267  -0.84076302            0    3345.8038    1.0207761 1.4980456e+08 
   82900    275.06754   -0.4540177            0    3278.4224    0.9965859 1.503451e+08 
   83000     282.7371  -0.99850977            0    3369.3011    1.0203355 1.5097358e+08 
   83100    285.72712  -0.44198476            0    3405.4994    1.0255232 1.5176704e+08 
   83200    282.52909  -0.99208991            0     3366.828    1.0076597 1.5275581e+08 
   83300    279.54551  -0.43067812            0    3331.8243   0.98984722 1.5383572e+08 
   83400    284.94368   -1.0111424            0    3395.5914    1.0023997 1.5488237e+08 
   83500    288.50142  -0.42690063            0    3438.5849    1.0081494 1.5588408e+08 
   83600    282.72095  -0.87829843            0    3369.2287   0.98198699 1.5681754e+08 
   83700    279.64549  -0.50546544            0    3332.9413   0.96674854 1.5755849e+08 
   83800    281.70525  -0.83136573            0    3357.1683   0.97076621 1.580533e+08 
   83900    283.16697   -0.4723924            0    3374.9514   0.97410339 1.5834433e+08 
   84000    283.77071  -0.69314515            0    3381.9273   0.97527511 1.5847749e+08 
   84100    283.20062  -0.52832054            0    3375.2965   0.97335004 1.5848108e+08 
   84200    280.06479  -0.60092786            0     3337.844   0.96326725 1.5836114e+08 
   84300    279.43338  -0.57212041            0    3330.3462   0.96272998 1.5809396e+08 
   84400    286.20625  -0.55019304            0    3411.1025   0.98852317 1.5770374e+08 
   84500    288.09516  -0.67279942            0    3433.4962   0.99754104 1.5730329e+08 
   84600    280.46444  -0.48409151            0    3342.7248   0.97351841 1.5692583e+08 
   84700    279.69484  -0.74811309            0    3333.2869   0.97348371 1.5648722e+08 
   84800    283.26748  -0.47275525            0    3376.1491    0.9891632 1.5598895e+08 
   84900    285.32386  -0.81420785            0    3400.3202   0.99938049 1.5550266e+08 
   85000    282.27225  -0.44944128            0     3364.309   0.99154877 1.5506878e+08 
   85100    274.73374  -0.84310638            0    3274.0543   0.96763631 1.5464219e+08 
   85200    280.45903  -0.47630795            0     3342.668   0.99104115 1.5414888e+08 
   85300    285.92983  -0.80461191            0    3407.5531    1.0133708 1.5368037e+08 
   85400    284.06573  -0.52872929            0    3385.6084    1.0091468 1.5332282e+08 
   85500    280.53708  -0.83197102            0    3343.2428    0.9983673 1.5304845e+08 
   85600    280.80132  -0.47752497            0    3346.7471    1.0009664 1.5280643e+08 
   85700     289.1309  -0.80034851            0     3445.715    1.0319001 1.5261117e+08 
   85800    288.77353  -0.47406509            0    3441.7814    1.0310377 1.5256202e+08 
   85900    281.22499   -1.8796599            0    3350.3952     1.003392 1.5264018e+08 
   86000    281.20948  -0.48183121            0    3351.6081     1.002854 1.527392e+08 
   86100    284.30591   -0.8464298            0    3388.1537    1.0131099 1.5284912e+08 
   86200    286.12432  -0.44774494            0    3410.2284    1.0186113 1.5300968e+08 
   86300    281.23466  -0.89075853            0    3351.4993   0.99966529 1.5323595e+08 
   86400    276.03964  -0.46759012            0    3289.9966   0.97987338 1.5344891e+08 
   86500     283.0072  -0.79058387            0    3372.7287    1.0036512 1.5358241e+08 
   86600    286.21131  -0.45669156            0    3411.2564    1.0141971 1.5372161e+08 
   86700    283.39632  -0.85610743            0    3377.3015    1.0028815 1.5391519e+08 
   86800    280.46195  -0.45586256            0    3342.7233    0.9912506 1.541197e+08 
   86900    283.17609  -0.84402868            0    3374.6884   0.99965938   1.5429e+08 
   87000    291.10171  -0.43235513            0    3469.5756    1.0265266 1.5447324e+08 
   87100    285.06617  -0.98204804            0    3397.0807    1.0034978 1.5475989e+08 
   87200     280.0021  -0.42579994            0    3337.2719   0.98357842 1.5506991e+08 
   87300    281.91553  -0.98578918            0    3359.5204   0.98885636 1.5531838e+08 
   87400    285.65964  -0.41376539            0    3404.7232    1.0005446 1.5552265e+08 
   87500     285.6264   -0.9772184            0    3403.7636   0.99970727 1.5573182e+08 
   87600    276.44079  -0.41468069            0    3294.8313   0.96573083 1.5592739e+08 
   87700    278.29523  -0.99238979            0    3316.3589   0.97231633 1.5598854e+08 
   87800    285.65722  -0.40541912            0    3404.7027    0.9979461 1.5592708e+08 
   87900    285.54462  -0.85233557            0    3402.9136   0.99934615 1.5584188e+08 
   88000    281.16397  -0.40370743            0    3351.1438     0.983443 1.5573713e+08 
   88100     279.0029    -0.767726            0    3325.0192    0.9786364 1.5554892e+08 
   88200    286.77386  -0.40157081            0    3418.0172    1.0062287 1.5524848e+08 
   88300    289.88232  -0.61511631            0    3454.8573    1.0212527 1.5494069e+08 
   88400    282.22079  -0.40276121            0    3363.7423   0.99388316 1.5468071e+08 
   88500    280.39092  -0.67602425            0    3341.6565   0.99127584 1.5437772e+08 
   88600    283.76564  -0.40345803            0    3382.1566    1.0037498 1.5399875e+08 
   88700    287.69477   -0.7766556            0    3428.6196    1.0218872 1.5359755e+08 
   88800    284.29079  -0.42935869            0    3388.3906    1.0105586  1.53241e+08 
   88900    277.68451  -0.96873895            0    3309.1026   0.99066867 1.5289053e+08 
   89000    281.67381   -0.4768719            0     3357.148    1.0063078 1.5246493e+08 
   89100    287.60529  -0.73588787            0    3427.5938    1.0323184 1.5202332e+08 
   89200    285.01997  -0.40999222            0     3397.102     1.023712 1.516627e+08 
   89300    280.20599  -0.71226183            0    3339.4158    1.0101899 1.5136925e+08 
   89400    281.30693  -0.40796388            0    3352.8436    1.0141996 1.5109063e+08 
   89500    283.78726  -0.61304883            0    3382.2047    1.0269707 1.5084516e+08 
   89600    284.93086  -0.40409486            0    3396.0457     1.030057 1.5068209e+08 
   89700    281.65554  -0.64181485            0    3356.7652    1.0206097 1.5063269e+08 
[...]
  190500    285.81981  -0.81814557            0    3406.2282     0.985948 1.578955e+08 
  190600     289.5045  -0.48211772            0    3450.4866    1.0004626 1.5762338e+08 
  190700    284.10516  -0.65340921            0    3385.9538   0.98351403 1.5733697e+08 
  190800    281.72646  -0.53642376            0    3357.7161   0.97759058 1.5697141e+08 
  190900    282.78659  -0.62412766            0    3370.2654   0.98422725 1.5649427e+08 
  191000    285.55972  -0.56415779            0    3403.3817   0.99747354 1.5593414e+08 
  191100    287.46823  -0.56448024            0    3426.1313    1.0078913 1.5535454e+08 
  191200    281.51446  -0.61642162            0     3355.109   0.99055281 1.5479556e+08 
  191300     278.9295  -0.58310117            0    3324.3289   0.98525097 1.5420078e+08 
  191400     284.4145  -0.60518443            0    3389.6894    1.0088205 1.535573e+08 
  191500    289.27028  -0.56855687            0    3447.6082    1.0300245 1.5296922e+08 
  191600    280.23037  -0.61272472            0     3339.806     1.000773 1.5251573e+08 
  191700    278.10653  -0.62720804            0    3314.4747   0.99589749 1.5209961e+08 
  191800    284.13809  -0.53227361            0    3386.4675    1.0202868 1.5169085e+08 
  191900    286.89324  -0.65893597            0    3419.1829    1.0322429 1.5138115e+08 
  192000    281.81287  -0.52461946            0    3358.7579     1.015138 1.5121266e+08 
  192100    276.61548  -0.76726139            0    3296.5611   0.99698914 1.5111486e+08 
  192200    284.69984  -0.46238655            0    3393.2335    1.0268525 1.5102452e+08 
  192300    289.01246  -0.82067915            0    3444.2828     1.042164 1.5104774e+08 
  192400    282.93791  -0.46498054            0    3372.2282    1.0189754 1.5124958e+08 
  192500    279.09606  -0.91349622            0     3325.984    1.0031411 1.5154704e+08 
  192600     282.8079  -0.43472354            0    3370.7087    1.0143012 1.5187941e+08 
  192700    288.12855   -0.9662885            0    3433.6008    1.0306541 1.5229236e+08 
  192800    284.11327   -0.4338957            0    3386.2699    1.0125418 1.5284588e+08 
  192900    276.21793  -0.99387176            0    3291.5955   0.98061791 1.534663e+08 
  193000    281.83214  -0.41644807            0    3359.0957    0.9967449 1.5402284e+08 
  193100    288.94967   -1.0002572            0    3443.3548    1.0186478 1.5456861e+08 
  193200    282.85976   -0.4230051            0    3371.3387   0.99289648 1.5518317e+08 
  193300    278.15912  -0.99981614            0     3314.729   0.97311198 1.5576221e+08 
  193400     282.5589  -0.41484347            0    3367.7605    0.9852772 1.5621761e+08 
  193500    287.26289  -0.99807357            0    3423.2501   0.99950321 1.565963e+08 
  193600    284.04638  -0.42532203            0    3385.4812   0.98581515 1.5695355e+08 
  193700    279.57219  -0.96991749            0    3331.6031   0.96860148 1.5723714e+08 
  193800    283.07785  -0.42632568            0     3373.935   0.97980301 1.573779e+08 
  193900    292.01233  -0.88164139            0    3479.9811    1.0102627 1.5744049e+08 
  194000     284.3339  -0.46357132            0    3388.8703   0.98317907 1.5753021e+08 
  194100    279.70083  -0.80741564            0     3333.299   0.96694312 1.5754924e+08 
  194200    282.30773  -0.48386405            0    3364.6975   0.97683587 1.5742022e+08 
  194300    287.86443  -0.75141809            0    3430.6672   0.99750646 1.571812e+08 
  194400    285.29805  -0.50202684            0    3400.3247   0.99037805 1.5691236e+08 
  194500    276.62864  -0.72012567            0     3296.765   0.96229161 1.5657126e+08 
  194600    281.24484  -0.48744954            0     3352.024   0.98167965 1.5605412e+08 
  194700    286.47647  -0.72551214            0    3414.1483    1.0038787 1.5543038e+08 
  194800    284.95803  -0.50259617            0    3396.2711    1.0026979 1.5479961e+08 
  194900    279.78059   -0.7267918            0    3334.3304   0.98843406 1.5416763e+08 
  195000    279.79201  -0.48646362            0    3334.7069   0.99291946 1.534902e+08 
  195100    292.03096  -0.76421635            0    3480.3206    1.0408512 1.5281691e+08 
  195200    287.98737  -0.49534904            0    3432.3888    1.0298791 1.5231738e+08 
  195300    280.94464  -0.75646066            0    3348.1765    1.0069375 1.5196445e+08 
  195400    280.75449  -0.47273737            0    3346.1936    1.0083484 1.5166304e+08 
  195500    285.57279  -0.86567376            0     3403.236    1.0272828 1.5141451e+08 
  195600     288.2344  -0.45226117            0    3435.3765    1.0377883 1.5128982e+08 
  195700    279.31437  -0.90150079            0    3328.5983    1.0054343 1.5131763e+08 
  195800    277.44274  -0.43702708            0    3306.7524   0.99828543 1.5138734e+08 
  195900    283.58193  -0.99555495            0    3379.3746     1.020338 1.5146389e+08 
  196000    285.28212  -0.41780646            0    3400.2191    1.0248983 1.5162595e+08 
  196100    282.96749    -0.953677            0    3372.0922    1.0155268 1.5190324e+08 
  196200    280.14505  -0.41385677            0    3338.9878    1.0022454 1.5226054e+08 
  196300    280.74191   -0.6968885            0    3345.8195     1.003677 1.5264976e+08 
  196400    286.84252   -0.4020375            0    3418.8351    1.0207467 1.5307717e+08 
  196500    286.34464  -0.71702725            0    3412.5853    1.0171967 1.5361176e+08 
  196600    279.35095  -0.40896745            0    3329.5268   0.98663762 1.5423108e+08 
  196700    278.70938  -0.61516341            0    3321.6729   0.98274044 1.5481794e+08 
  196800    287.31699  -0.39922221            0    3424.4939    1.0075191 1.5534375e+08 
  196900    286.37054  -0.67952951            0    3412.9315    1.0025252 1.5589448e+08 
  197000    281.86319  -0.41205879            0    3359.4703   0.98139283 1.5644957e+08 
  197100     280.3381  -0.71984625            0     3340.983   0.97487183 1.5692263e+08 
  197200    286.05736  -0.39912829            0    3409.4788   0.99076277 1.5727829e+08 
  197300    290.63369  -0.96790505            0    3463.4611    1.0052925 1.5759089e+08 
  197400    282.27194  -0.41805341            0    3364.3366   0.97373979 1.5790764e+08 
  197500    280.45926   -1.0014675            0    3342.1457   0.96644502 1.5811659e+08 
  197600    283.50247  -0.42079126            0    3379.0021   0.97635531 1.5817112e+08 
  197700    286.31232  -0.94196103            0    3411.9751   0.98639576 1.5811253e+08 
  197800     282.9994  -0.44581621            0    3372.9804   0.97579807 1.5797809e+08 
  197900     276.3274  -0.90020179            0    3292.9941    0.9543351 1.5771318e+08 
  198000    281.40821  -0.44390194            0    3354.0149   0.97491685 1.572316e+08 
  198100      287.354  -0.86732333            0    3424.4669    0.9993918 1.5661049e+08 
  198200    285.15062  -0.46406682            0    3398.6053   0.99594352 1.5595788e+08 
  198300    281.57249  -0.81127786            0    3355.6058   0.98767808 1.5527496e+08 
  198400    281.08298  -0.46452935            0    3350.1175   0.99073431 1.5454078e+08 
  198500    286.36129   -0.8443887            0    3412.6565    1.0142136 1.5378744e+08 
  198600    291.99095  -0.46448703            0    3480.1434    1.0386586 1.5313277e+08 
  198700    283.21746  -0.76857101            0     3375.257    1.0104571 1.5266093e+08 
  198800    280.77603  -0.47168968            0    3346.4514    1.0043615 1.5227687e+08 
  198900    283.41107   -0.8705324            0     3377.463    1.0159781 1.5194039e+08 
  199000    286.67848  -0.44881709            0    3416.8331    1.0294392 1.5169353e+08 
  199100    283.83784  -0.89686617            0    3382.5238    1.0199465 1.5158039e+08 
  199200    276.65794  -0.44246259            0     3297.392   0.99438016 1.5155132e+08 
  199300    280.99083  -0.99479911            0    3348.4888    1.0106716 1.5151714e+08 
  199400    286.11523  -0.41457061            0    3410.1532    1.0285356 1.5153149e+08 
  199500    284.44069  -0.95979018            0    3389.6471    1.0223732 1.5166533e+08 
  199600     281.6126  -0.41387148            0    3356.4814    1.0099064 1.5189734e+08 
  199700    281.71588  -0.75681242            0    3357.3695    1.0100282 1.5218346e+08 
  199800    290.11301  -0.40027122            0    3457.8221    1.0361041 1.5252839e+08 
  199900    289.29968  -0.87611954            0    3447.6511    1.0309754 1.5303066e+08 
  200000    281.08061  -0.41117049            0    3350.1426   0.99637584 1.5366939e+08 
Loop time of 165.03 on 9 procs for 200000 steps with 4000 atoms

Performance: 104.708 ns/day, 0.229 hours/ns, 1211.903 timesteps/s
99.9% CPU use with 9 MPI tasks x no OpenMP threads

MPI task timing breakdown:
Section |  min time  |  avg time  |  max time  |%varavg| %total
---------------------------------------------------------------
Pair    | 3.2118     | 3.3793     | 3.6049     |   6.8 |  2.05
Neigh   | 112.15     | 126.07     | 137.64     | 107.7 | 76.39
Comm    | 12.283     | 24.057     | 38.194     | 250.5 | 14.58
Output  | 0.062377   | 0.067851   | 0.1062     |   5.2 |  0.04
Modify  | 9.2838     | 9.5322     | 9.7023     |   4.2 |  5.78
Other   |            | 1.92       |            |       |  1.16

Nlocal:    444.444 ave 484 max 420 min
Histogram: 1 2 3 0 0 1 0 0 0 2
Nghost:    71.4444 ave 81 max 60 min
Histogram: 1 0 0 0 5 0 1 0 0 2
Neighs:    4.88889 ave 7 max 3 min
Histogram: 1 0 2 0 0 4 0 1 0 1

Total # of neighbors = 44
Ave neighs/atom = 0.011
Neighbor list builds = 200000
Dangerous builds not checked
WARNING: One or more atoms are time integrated more than once (../modify.cpp:266)
Setting up Verlet run ...
  Unit style  : real
  Current step: 0
  Time step   : 1
Memory usage per processor = 6.93957 Mbytes
Step Temp E_pair E_mol TotEng Press Volume 
       0    281.08061  -0.41117049            0    3350.1426   0.99637584 1.5366939e+08 
     100    282.94961  -0.17781582            0    3372.6549   0.99906179 1.5430088e+08 
     200    288.16278 -0.0012761143            0    3434.9738    1.0134588 1.5493511e+08 
     300    282.83527 -0.00049569308            0    3371.4693   0.99021541 1.5564037e+08 
     400    287.32419 -0.00015382928            0    3424.9787    1.0017666 1.5628746e+08 
     500    281.67264 -5.4329779e-05            0    3357.6109   0.97832377 1.568847e+08 
     600    282.06058 -0.0001990888            0    3362.2351   0.97729376 1.5726633e+08 
     700    288.64648 -0.00069061172            0    3440.7403   0.99911619 1.5742314e+08 
     800    282.01696 -0.000206006            0    3361.7152   0.97586382 1.5747242e+08 
     900    289.34246 -0.0005220119            0    3449.0367    1.0021626 1.5732304e+08 
    1000    281.20305 -0.0083097076            0     3352.005   0.97545597 1.5708246e+08 
    1100     282.3144 -0.003615723            0    3365.2572   0.98243677 1.5658335e+08 
    1200    287.80702 -0.00057843316            0    3430.7337    1.0061734 1.5586438e+08 
    1300    280.93151 -0.0013702087            0    3348.7751   0.98709075  1.55082e+08 
    1400    286.58743 -0.0035316757            0     3416.193     1.012946 1.5416581e+08 
    1500    284.75144 -0.0010810645            0    3394.3099    1.0122371 1.5328575e+08 
    1600    280.77685 -0.0021169816            0    3346.9308    1.0033274 1.5248825e+08 
    1700    286.23734 -0.00013318734            0    3412.0232    1.0278078 1.5175146e+08 
    1800    285.49366 -0.00086278117            0    3403.1577    1.0283761 1.5127345e+08 
    1900    281.42321 -0.00028202439            0    3354.6374      1.01503 1.510774e+08 
    2000    287.67372 -0.00023541414            0    3429.1451     1.037423 1.5109941e+08 
    2100    282.47264 -0.00029905705            0    3367.1469    1.0162277 1.5146205e+08 
    2200    282.92725 -0.00044305198            0    3372.5657    1.0140805  1.52027e+08 
    2300    286.54883  -0.01237277            0     3415.724    1.0221417 1.5275709e+08 
    2400    279.83958 -0.0053975037            0     3335.755   0.99247949 1.5363991e+08 
    2500     285.0835 -0.0024598422            0    3398.2668    1.0057353 1.5445644e+08 
    2600    285.22546 -0.0058894748            0    3399.9556     1.001085 1.5525072e+08 
    2700     280.9794 -0.033759999            0    3349.3136   0.98165228 1.5596326e+08 
    2800    286.49772 -0.0040715341            0     3415.123   0.99765095 1.5648026e+08 
    2900    280.30353 -0.0009686005            0    3341.2898   0.97363113 1.5687448e+08 
    3000    284.91338 -0.00052585518            0    3396.2409   0.98864791 1.570325e+08 
    3100    284.70619 -7.319041e-05            0    3393.7715   0.98777911 1.5705638e+08 
    3200    280.13338 -3.7457335e-05            0    3339.2625   0.97253229 1.5695653e+08 
    3300     287.8126 -0.00022337354            0    3430.8006     1.001026 1.5666895e+08 
    3400    281.27874 -8.9547293e-05            0    3352.9155    0.9801919 1.5636672e+08 
    3500    283.29671 -6.2169143e-05            0    3376.9702   0.98978454 1.5596222e+08 
    3600    286.65616 -8.3556449e-05            0    3417.0157    1.0043998 1.5551532e+08 
    3700    283.52964 -0.00026712753            0    3379.7466   0.99592311 1.5512833e+08 
    3800    286.89719 -0.00065346763            0    3419.8883    1.0100722 1.5477192e+08 
    3900    283.41725 -0.0016180278            0    3378.4055   0.99948444 1.5451412e+08 
    4000    281.22923 -0.0014855246            0    3352.3239   0.99328925 1.5427754e+08 
    4100      286.897 -0.00051825617            0    3419.8862      1.01497 1.5402499e+08 
    4200      281.625 -0.00045718141            0    3357.0427   0.99719767 1.5388927e+08 
    4300    284.38247 -9.043404e-05            0    3389.9127    1.0076955 1.5377723e+08 
    4400    284.58043 -0.0092521692            0    3392.2633    1.0087118 1.5372798e+08 
    4500    280.18168 -0.00065981378            0    3339.8376   0.99298616 1.537499e+08 
    4600    284.37695 -0.0001775271            0    3389.8469    1.0079167 1.5374049e+08 
    4700    283.03733 -0.0050574619            0    3373.8734    1.0028226 1.5379287e+08 
    4800    276.73356 -8.7561567e-05            0    3298.7357   0.98012889 1.5384988e+08 
    4900    283.78934 -0.0004106029            0    3382.8422    1.0056546 1.5376789e+08 
    5000    287.22122 -0.036539456            0     3423.715    1.0180211 1.5373208e+08 
    5100    276.38515 -0.00011701705            0    3294.5826   0.97907486 1.538216e+08 
    5200    280.43559 -5.9641645e-05            0    3342.8649    0.9937446 1.5377187e+08 
    5300    290.65308 -3.6905619e-05            0      3464.66    1.0305293 1.5368557e+08 
    5400    279.59985 -9.1399835e-05            0    3332.9027    0.9904846 1.538182e+08 
    5500    278.69863  -0.21895757            0     3321.941    0.9864921 1.5391437e+08 
    5600    292.37967 -0.0003671345            0    3485.2412    1.0349075 1.5394446e+08 
    5700    284.25816 -0.00015442422            0    3388.4308    1.0042464 1.5423791e+08 
    5800    276.17144 -7.8427816e-05            0    3292.0351   0.97322339 1.5462679e+08 
    5900    289.00959 -8.9817551e-05            0    3445.0692    1.0168068 1.5487894e+08 
    6000     289.0331 -0.0007436945            0    3445.3488    1.0141322 1.5529994e+08 
    6100    278.26492 -0.00053426155            0    3316.9895   0.97240987 1.559292e+08 
    6200    284.34952 -0.00050835034            0    3389.5196   0.99030613 1.5645931e+08 
    6300    288.06306 -8.7541055e-05            0    3433.7863   0.99990652 1.5698086e+08 
    6400    272.87278 -6.3709972e-05            0    3252.7143   0.94388064 1.5752942e+08 
    6500    284.79542 -0.00076852831            0    3394.8345   0.98406833 1.5769794e+08 
    6600    287.69653 -0.0072081499            0      3429.41   0.99435236 1.5765587e+08 
    6700    278.17646 -0.00031949758            0    3315.9352   0.96235598 1.5750816e+08 
    6800    284.17427 -8.2314225e-05            0    3387.4309   0.98620993 1.5701238e+08 
    6900    288.40956  -0.13887852            0    3437.7779    1.0052288 1.563193e+08 
    7000    271.75195 -0.00020476115            0    3239.3535    0.9520815 1.5553102e+08 
    7100    288.20548 -0.00032486334            0    3435.4837    1.0173318 1.5436828e+08 
    7200    286.75628 -0.00012296112            0    3418.2091    1.0195363 1.5325997e+08 
    7300     278.0732 -0.00012825435            0    3314.7046   0.99473612 1.523245e+08 
    7400    285.75908 -0.00013383664            0    3406.3223    1.0283071 1.5142434e+08 
    7500     286.0139 -0.00042457278            0    3409.3594    1.0335199 1.5079491e+08 
    7600    270.96165 -0.00023168208            0     3229.933   0.98135466 1.5045281e+08 
    7700    284.60369 -0.0030619494            0    3392.5467    1.0331264 1.5010821e+08 
    7800    286.13215 -0.0005018679            0     3410.769    1.0389805 1.5006438e+08 
    7900     278.5582 -0.00045793077            0    3320.4855    1.0089819 1.5043572e+08 
    8000    285.28991 -0.0027728229            0    3400.7269     1.029008 1.510724e+08 
    8100    288.90938 -0.002097204            0    3443.8727    1.0347462 1.5214076e+08 
    8200    272.43648 -0.0025259554            0     3247.511    0.9662016 1.536438e+08 
    8300    286.50613  -0.44774092            0    3414.7797    1.0064269 1.5506885e+08 
    8400    286.27758 -0.00033228277            0    3412.5027   0.99681335 1.5649192e+08 
    8500     277.8184 -9.8207301e-05            0    3311.6673   0.95953972 1.5776715e+08 
    8600     285.4441 -7.6876135e-05            0    3402.5676   0.98095771 1.5855842e+08 
    8700    286.92052 -0.00033913835            0    3420.1667   0.98324607 1.5900758e+08 
    8800    278.06084 -0.00011093115            0    3314.5573   0.95201542 1.5915283e+08 
    8900    280.61054 -0.001636624            0    3344.9488    0.9628525 1.5880426e+08 
    9000    289.73088 -0.008158545            0    3453.6591   0.99852112 1.581077e+08 
    9100    281.59608  -0.02659097            0    3356.6717   0.97508391 1.5735948e+08 
    9200    278.59119 -0.00026704987            0    3320.8789   0.97037399 1.5643959e+08 
    9300    288.42512 -4.2304556e-05            0    3438.1023    1.0115359 1.5537113e+08 
    9400    284.38214 -1.1344557e-05            0    3389.9088    1.0031138 1.5447944e+08 
    9500    276.29143 -1.1027007e-05            0    3293.4655   0.97945208 1.5371023e+08 
    9600    284.94205 -0.00011150759            0    3396.5831    1.0152534 1.5293279e+08 
    9700    285.73917 -0.0003522269            0    3406.0846    1.0217607 1.5238386e+08 
    9800    275.04953 -7.7911138e-05            0    3278.6616   0.98563949 1.5205872e+08 
    9900    286.27342 -0.00047316742            0     3412.453    1.0279645 1.5174741e+08 
   10000    284.70041  -0.91676591            0     3392.786    1.0224381 1.516742e+08 
Loop time of 10.0428 on 9 procs for 10000 steps with 4000 atoms

Performance: 86.032 ns/day, 0.279 hours/ns, 995.736 timesteps/s
99.9% CPU use with 9 MPI tasks x no OpenMP threads

MPI task timing breakdown:
Section |  min time  |  avg time  |  max time  |%varavg| %total
---------------------------------------------------------------
Pair    | 0.05724    | 0.063482   | 0.068367   |   1.7 |  0.63
Neigh   | 6.4769     | 7.4961     | 8.3539     |  31.6 | 74.64
Comm    | 0.46682    | 1.3335     | 2.3747     |  76.1 | 13.28
Output  | 0.1288     | 0.12903    | 0.13069    |   0.2 |  1.28
Modify  | 0.90276    | 0.92337    | 0.93878    |   1.2 |  9.19
Other   |            | 0.09736    |            |       |  0.97

Nlocal:    444.444 ave 468 max 410 min
Histogram: 1 1 0 0 0 3 1 0 0 3
Nghost:    70.6667 ave 96 max 56 min
Histogram: 1 1 3 1 0 2 0 0 0 1
Neighs:    4.88889 ave 6 max 3 min
Histogram: 1 0 0 1 0 0 5 0 0 2

Total # of neighbors = 44
Ave neighs/atom = 0.011
Neighbor list builds = 10000
Dangerous builds not checked
Total wall time: 0:02:55
