LAMMPS (16 Feb 2016)
Lattice spacing in x,y,z = 3 3 3
Created orthogonal box = (0 0 0) to (30 30 30)
  1 by 1 by 1 MPI processor grid
Created 4000 atoms
Neighbor list info ...
  1 neighbor list requests
  update every 1 steps, delay 0 steps, check no
  max neighbors/atom: 2000, page size: 100000
  master list distance cutoff = 5.73
  ghost atom cutoff = 5.73
  binsize = 2.865, bins = 11 11 11
Setting up Verlet run ...
  Unit style  : real
  Current step: 0
  Time step   : 1
Memory usage per processor = 2.18959 Mbytes
Step Temp E_pair E_mol TotEng Press Volume 
       0       283.13   -0.7732371            0    3374.2098    5710.0785        27000 
     100    281.15861   -4.0572742            0    3347.4263    5571.8538    27397.271 
     200    286.74137   -70.422704            0    3347.6088    5397.0095    28260.014 
     300    288.00764   -82.735202            0    3350.3906    5330.5801    29057.664 
     400    279.57924   -87.628763            0    3245.0283     4986.054    29895.072 
     500    272.84246     -90.0663            0    3162.2866    4706.2666     30666.86 
     600    281.36013   -101.03458            0    3252.8512    4715.7125    31394.939 
     700    282.81513   -100.39405            0    3270.8356    4577.8073    32127.773 
     800     284.2928   -103.31058            0    3285.5334    4549.8208    32864.561 
     900    283.81011    -92.90913            0     3290.181    4455.7816    33608.234 
    1000    283.04295   -74.390233            0    3299.5552     4364.725    34358.287 
    1100    285.95296    -84.30298            0    3324.3305    4308.4762    35118.023 
    1200    285.94564   -85.635902            0    3322.9103    4156.8645    35889.757 
    1300    288.78235   -89.032078            0    3353.3285    4161.6106    36671.298 
    1400    285.58367   -85.309432            0     3318.922    4026.6584      37467.3 
    1500    277.09962   -82.951037            0    3220.1484    3816.4212    38266.654 
    1600    279.15559   -86.159603            0    3241.4474    3822.6113    39064.112 
    1700     283.2529   -91.322745            0    3285.1253    3782.4233    39878.817 
    1800    281.32899   -81.265321            0    3272.2492    3699.3637    40712.583 
    1900    283.08541   -82.651084            0    3291.8005    3612.1569     41557.22 
    2000    284.47622   -88.609554            0    3302.4208    3571.7977    42418.021 
    2100    282.51967   -80.488462            0    3287.2193    3451.2966    43293.312 
    2200    289.33873   -90.687974            0    3358.3047    3455.2985    44181.154 
    2300    286.87164   -83.875807            0    3335.7085    3339.5926    45094.653 
    2400    279.42867   -88.885903            0    3241.9763    3250.3997    46015.436 
    2500    279.52383   -90.719588            0    3241.2769    3179.9897     46935.91 
    2600     284.1333   -85.008336            0    3301.9343    3116.0477     47876.12 
    2700    281.21709   -82.154125            0    3270.0265    3003.5779     48838.19 
    2800     281.7275     -86.0879            0    3272.1769    3004.5245    49810.108 
    2900    285.26128   -92.602286            0    3307.7862    3003.9753    50801.288 
    3000    283.36214    -83.91688            0    3293.8333    2909.1638    51814.608 
    3100    281.94128   -74.993682            0    3285.8195    2846.8132    52841.341 
    3200    288.89967   -66.197029            0     3377.562    2886.4674    53886.954 
    3300    285.14138    -71.99287            0    3326.9664    2760.2848    54963.637 
    3400    278.53362   -70.991354            0    3249.2017    2620.5867    56047.842 
    3500    279.85433   -72.564734            0    3263.3715    2607.9971    57133.995 
    3600    283.38155   -73.843174            0    3304.1384    2605.5376    58242.851 
    3700    281.08001   -67.535534            0    3283.0111    2526.2916    59378.525 
    3800    282.08687   -66.334673            0     3296.214    2526.0202    60531.357 
    3900    284.97473   -72.300828            0    3324.6719    2462.6408    61706.626 
    4000     282.4952   -61.448793            0    3305.9673    2383.8864    62907.825 
    4100    280.80814   -63.269381            0    3284.0365     2361.914    64122.714 
    4200    279.74941    -58.46547            0      3276.22    2298.8444    65353.158 
    4300    281.31736   -61.444988            0    3291.9309    2277.3018    66603.565 
    4400    283.49628   -64.266646            0    3315.0826    2254.5023    67880.818 
    4500    283.48995   -64.364714            0     3314.909    2189.9973    69185.271 
    4600    283.51418   -69.669574            0     3309.893    2147.4349    70509.371 
    4700    287.79143   -52.215093            0    3378.3334    2149.6596    71858.006 
    4800    289.19857   -67.210772            0    3380.1111    2112.4551    73246.981 
    4900    280.44865   -58.901163            0    3284.1195    2026.2433    74653.939 
    5000    278.12814   -51.373353            0    3263.9862    1975.1747    76059.889 
    5100    281.36164   -53.309211            0    3300.5945    1947.1986    77486.253 
    5200    281.66388   -58.700696            0    3298.8058    1904.0194    78949.876 
    5300    283.00725   -61.536052            0    3311.9838    1887.0932    80439.418 
    5400    283.69846   -52.432973            0    3329.3262    1850.5517    81960.168 
    5500    283.77308   -55.807933            0    3326.8408    1825.7857    83508.575 
    5600    286.31293   -47.846688            0    3365.0777    1802.1728    85083.485 
    5700    290.60112   -51.675997            0    3412.3647    1784.0642    86703.347 
    5800    281.82755   -50.412962            0    3309.0445    1710.6723    88353.532 
    5900    277.49156   -46.957192            0    3260.8141    1639.9622    89998.002 
    6000    280.29054   -44.461382            0    3296.6745    1643.2834    91658.147 
    6100    280.98863   -43.201572            0    3306.2558    1623.4556     93359.88 
    6200    282.93152   -54.041393            0    3318.5757    1613.7403     95096.72 
    6300    283.28877    -43.60965            0     3333.266    1577.8107    96869.472 
    6400    284.26969   -48.885734            0    3339.6827    1552.7228    98678.304 
    6500    285.91557   -48.124869            0    3360.0629    1523.2786    100519.94 
    6600    291.19186   -42.151334            0    3428.9311    1535.2927    102407.53 
    6700    283.88032    -48.82263            0    3335.1044    1460.3725    104337.59 
    6800    277.14454   -42.828101            0    3260.8067    1399.8551    106262.18 
    6900    278.52795    -39.50443            0    3280.6209    1385.1358    108192.54 
    7000    280.86023    -43.12773            0    3304.7991    1377.2394    110171.01 
    7100    283.20138   -49.442569            0    3326.3914    1357.9288    112198.97 
    7200    283.02686   -39.841866            0    3333.9118    1332.6029    114269.06 
    7300    283.92168   -45.116901            0    3339.3031    1321.9152    116374.07 
    7400    287.84569   -47.332583            0    3383.8627    1305.2072    118521.77 
    7500    290.69031   -42.014262            0    3423.0897    1296.3592     120730.5 
    7600    280.85623   -38.866228            0    3309.0129    1223.7843    122975.55 
    7700    275.89688    -42.61955            0    3246.1428    1178.9301    125204.71 
    7800    277.16872   -33.815918            0    3270.1071    1164.4566     127448.3 
    7900    282.34431    -39.55292            0    3326.0644    1166.4604    129752.44 
    8000    284.00191   -38.756312            0    3346.6201    1162.2599     132126.1 
    8100    283.01938     -32.7945            0    3340.8699    1129.7773    134549.82 
    8200    284.48749   -41.349425            0    3349.8152    1110.5684     137008.2 
    8300    287.27995   -37.698812            0    3386.7528    1115.2972    139513.85 
    8400    286.79996   -35.150552            0    3383.5794     1082.481    142079.58 
    8500    279.19018   -35.751139            0    3292.2682     1043.968    144677.64 
    8600    274.82357   -34.708219            0    3241.2601    1005.5558    147266.67 
    8700    281.71173   -36.462023            0    3321.6148    1015.1691     149888.4 
    8800    282.45389   -30.653688            0      3336.27    995.72146    152599.81 
    8900    283.41682   -31.753467            0    3346.6485    981.72569    155368.35 
    9000    284.27739   -32.254661            0    3356.4055    963.08013    158188.24 
    9100    285.18574   -36.635213            0    3362.8528    957.37192       161060 
    9200    287.73554   -32.973336            0    3396.9089    951.90107    163988.59 
    9300    287.28073   -38.023869            0    3386.4369    925.27114    166981.46 
    9400    277.70471   -30.825802            0    3279.4864    883.57642    170003.25 
    9500    275.29202   -30.120104            0    3251.4322    860.96381    173010.19 
    9600    282.45538   -33.663963            0    3333.2775     869.7799    176072.87 
    9700    282.61402   -32.557367            0     3336.275    850.50587    179235.55 
    9800    283.98453   -36.570072            0    3348.5992    838.94002    182455.65 
    9900    284.21209   -28.652189            0    3359.2297     824.8187    185739.55 
   10000    285.02866   -30.797509            0    3366.8181    813.99893    189080.39 
   10100    288.00248   -30.429901            0    3402.6344    810.12254    192487.99 
   10200    287.12448   -29.386357            0    3393.2119    785.63241    195975.28 
   10300    277.74122   -30.973537            0    3279.7738    758.45985    199492.72 
   10400    274.93297     -28.1687            0    3249.1037    729.91617     202992.9 
   10500    281.69336   -29.079901            0     3328.778    736.78629    206555.76 
   10600    282.26564   -26.019261            0    3338.6604    728.73184    210233.67 
   10700    283.77625   -25.688056            0    3356.9985    716.49132     213990.3 
   10800    284.21206   -23.638054            0    3364.2434    706.41683    217818.94 
   10900    284.67016   -28.149433            0    3365.1927    695.09661     221711.3 
   11000    286.98379   -24.186374            0    3396.7348    686.48071    225677.87 
   11100    287.54244   -26.169946            0    3401.4106    676.03804    229731.92 
   11200     279.3894   -27.624628            0    3302.7695    643.81431    233841.13 
   11300    273.91382   -26.240152            0    3238.8837    621.18965    237926.32 
   11400    281.23391   -23.137844            0    3329.2433     632.3869    242060.72 
   11500    282.50239   -24.582828            0    3342.9189    619.28613    246337.81 
   11600    283.69859   -24.258404            0    3357.5023    612.87435     250711.5 
   11700    284.06023   -19.923953            0    3366.1477    602.01841    255163.47 
   11800    284.46869   -22.432162            0    3368.5084     593.1253    259694.56 
   11900    286.15612   -20.290773            0    3390.7644    595.65844    264305.95 
   12000    287.60757   -23.618217            0    3404.7386    580.50867     269020.3 
   12100    281.78734   -25.128784            0    3333.8495    559.63868    273806.39 
   12200     274.8755    -24.96451            0    3251.6228    534.33001    278587.71 
   12300    280.90329   -18.607976            0     3329.832    536.52421    283400.63 
   12400    283.02334   -22.809843            0    3350.9018    531.36125    288372.98 
   12500     282.9157    -21.57458            0    3350.8539     522.4476    293460.37 
   12600    284.21605   -23.809449            0    3364.1195    516.88392    298629.05 
   12700    285.28149   -21.467701            0    3379.1617    508.78077    303897.01 
   12800    286.87416   -18.483274            0    3401.1311     500.8844    309267.71 
   12900     288.0216    -19.35322            0     3413.939     495.6168    314756.37 
   13000    281.50744   -21.305715            0     3334.336    475.47049    320328.35 
   13100    275.09086   -23.158912            0    3255.9954    457.70084    325884.77 
   13200    281.39648    -18.60107            0     3335.718    460.60352    331480.27 
   13300    282.64972   -19.032678            0    3350.2252    458.21113    337261.92 
   13400    282.95413    -17.36127            0    3355.5253    447.86816    343174.62 
   13500    284.51741    -19.68156            0    3371.8398    443.83796    349187.95 
   13600    285.21804   -20.103647            0    3379.7693    435.07704    355317.56 
   13700    286.72529   -23.866435            0    3393.9734    429.99436    361555.49 
   13800    287.17574   -16.209623            0    3406.9997    426.69355    367923.62 
   13900    281.77553   -16.094136            0    3342.7433    406.61852    374391.71 
   14000    276.16264   -18.304116            0    3273.6262    393.35092    380861.81 
   14100    282.48459   -20.375049            0    3346.9145    395.90347     387381.7 
   14200    283.50599   -16.403278            0    3363.0617    389.95083    394119.09 
   14300    282.10224   -12.111441            0    3350.6204    382.12399    400999.23 
   14400    284.04953   -16.068135            0     3369.876    378.05322    407974.52 
   14500    286.91547   -15.892623            0    3404.2142    374.90343    415099.76 
   14600     285.3551   -15.520943            0    3385.9859      366.212     422380.1 
   14700    278.51703   -14.871311            0     3305.124    350.87849    429726.87 
   14800    277.77295   -15.814557            0    3295.3111    345.80439    437075.08 
   14900    283.50895   -14.977067            0    3364.5232    345.83616    444570.16 
   15000    283.69417   -13.484467            0    3368.2237    340.89579     452298.5 
   15100    282.89784   -14.690031            0    3357.5257    335.20313    460160.82 
   15200    284.65053    -12.30652            0    3380.8017     329.5886    468134.89 
   15300    288.18876   -14.945527            0    3420.3393    327.26662    476287.47 
   15400    283.51945    -14.97023            0    3364.6551    318.39968     484612.7 
   15500    272.14775   -12.506562            0    3231.5653    299.71115    492928.87 
   15600    277.06771   -15.121744            0    3287.5972    298.95231    501204.33 
   15700    280.49397   -10.604929            0    3332.9559    301.96517    509731.36 
   15800    284.01763   -16.609881            0    3368.9539    296.68785    518521.13 
   15900    284.08425   -11.117871            0      3375.24    292.07698    527514.67 
   16000    283.35045   -10.869748            0    3366.7411     287.1414    536648.45 
   16100    285.03645   -12.454039            0    3385.2544    283.07622    545911.09 
   16200    287.92447    -13.83385            0    3418.3005    280.76338    555372.55 
   16300    283.56575   -8.9802019            0    3371.1971    274.75467    565028.51 
   16400     274.3122   -14.243432            0    3255.6291    259.33603    574707.86 
   16500    277.57625   -9.4624339            0    3299.3184    257.28339    584352.46 
   16600     281.8196   -11.210036            0    3348.1527    256.63441    594270.28 
   16700    283.15325   -10.324123            0     3364.936    253.67886    604482.33 
   16800    284.22787   -11.292961            0     3376.777    251.67441    614896.32 
   16900    284.40899   -12.297135            0    3377.9317    246.93258    625489.61 
   17000    285.44859   -11.943427            0    3390.6779    244.80976       636258 
   17100     287.7066   -10.834101            0    3418.7032    240.78291    647240.89 
   17200    284.65876   -18.103926            0    3375.1023    234.63661    658434.56 
   17300     275.1669    -10.59132            0    3269.4695    223.66772    669660.93 
   17400    279.04674   -12.409491            0       3313.9     221.9942    680865.68 
   17500    282.59448   -10.654282            0    3357.9453    222.01951    692409.56 
   17600    282.98914   -11.735888            0    3361.5681    218.52605    704260.61 
   17700    283.74917   -9.1430475            0    3373.2207    214.76418    716315.74 
   17800    284.97236   -8.9974697            0     3387.947    212.16491    728592.14 
   17900    286.10688   -8.9826983            0    3401.4855    210.03172    741102.43 
   18000     287.8882   -9.9003272            0    3421.8017    207.37722    753858.56 
   18100    284.27912   -10.817081            0    3377.8638    201.97187    766841.16 
   18200    276.72955   -11.625759            0    3287.0622    192.91849    779865.83 
   18300    279.73814   -9.0581753            0     3325.493    191.43864    792909.52 
   18400    283.42193   -8.4411889            0    3370.0217    190.85541     806323.3 
   18500    282.46561   -7.9962159            0    3359.0671    187.14215    820080.03 
   18600     283.2017   -8.4544603            0    3367.3832    185.61075     834033.9 
   18700    286.13702    -10.04159            0    3400.7859    183.11032    848257.19 
   18800    286.17746   -5.9466093            0     3405.363    181.27618    862800.32 
   18900    283.88053   -7.3384874            0     3376.591     175.6872    877562.63 
   19000    280.32889   -7.5547009            0    3334.0384    170.27165    892442.09 
   19100    282.11816   -8.5546948            0    3354.3669    168.55277    907461.24 
   19200    285.15223   -6.9237637            0    3392.1648    167.63722    922839.21 
   19300    283.40886   -6.4311297            0    3371.8759    164.02505    938571.48 
   19400     281.6756   -7.8056875            0    3349.8406    160.59367    954480.45 
   19500    287.30816   -7.0718632            0    3417.7159    160.93164    970632.21 
   19600    285.87708   -5.4498805            0    3402.2791     158.1912    987238.58 
   19700     279.2449   -7.2577047            0     3321.414    151.01433      1004011 
   19800    279.06108   -8.1200382            0    3318.3604    148.63332    1020772.2 
   19900    285.65785   -5.7781649            0    3399.3375    149.56841    1037923.3 
   20000    283.13533   -7.5539404            0    3367.4927     145.7434      1055584 
   20100    280.36511   -6.7497907            0    3335.2751    141.99323    1073403.7 
   20200     284.5223   -5.8970965            0    3385.6825     141.9729    1091423.1 
   20300    285.84577   -6.8907759            0    3400.4649    140.06957    1109932.3 
   20400     281.8313   -7.8724686            0    3351.6298     135.6099    1128754.7 
   20500    280.40627   -4.4846799            0    3338.0308    132.71266    1147683.9 
   20600    288.86085   -4.5377125            0    3438.7585    134.56289    1166973.3 
   20700    285.03563   -5.6591245            0    3392.0396    130.48587    1186895.9 
   20800    279.12578   -5.8892418            0    3321.3624    125.83037    1206924.7 
   20900    280.92319   -6.3923312            0    3342.2849    124.33555    1226993.6 
   21000    284.62044   -4.9303642            0    3387.8191    124.15359    1247555.1 
   21100    282.42442   -6.0823519            0    3360.4899    121.20483    1268610.2 
   21200    281.38552   -5.9509011            0    3348.2375    118.76231    1289888.7 
   21300    285.81024   -5.4445421            0    3401.4876    118.31223    1311499.7 
   21400    286.82448   -6.5347472            0    3412.4875    116.79692    1333714.7 
   21500    282.05884   -5.1751307            0    3357.0394    113.03468    1356262.1 
   21600    280.44481   -7.3915023            0    3335.5834    110.52763    1378895.9 
   21700    282.75529   -7.4185552            0    3363.0979     109.8165    1401833.5 
   21800    284.29171   -6.0530066            0    3382.7779    108.66896    1425323.2 
   21900    282.59659   -5.3448379            0    3363.2798    106.08573    1449276.4 
   22000    281.72116   -4.3788771            0    3353.8104    103.84477    1473501.7 
   22100    290.76277   -6.3378354            0    3459.6298    105.36035      1498165 
   22200    287.41778   -5.1189055            0    3420.9756    102.87011    1523686.4 
   22300    279.24382   -5.1642711            0    3323.4945    97.971931    1549330.7 
   22400    278.90977   -5.1004373            0    3319.5764    96.419098    1574868.5 
   22500    283.63423   -5.5746608            0    3375.4189    96.317419    1600907.4 
   22600    282.37265   -5.3446469            0    3360.6106    94.338745    1627657.6 
   22700    281.71186   -4.4151292            0    3353.6633    92.489416    1654777.1 
   22800    285.12403   -6.1365639            0    3392.6159    92.184398      1682332 
   22900    286.61822   -4.7922939            0    3411.7712    91.033313      1710562 
   23000      281.732   -6.1768229            0    3352.1417    88.353443    1739281.1 
   23100     273.6287   -6.8644258            0    3254.8606    84.402366    1767943.7 
   23200    279.68059   -6.4921817            0     3327.373    84.451413    1796660.7 
   23300    283.41272   -6.4546035            0    3371.8986    84.212705    1826350.8 
   23400    283.79431   -1.9172971            0    3380.9845    83.156732    1856863.1 
   23500    284.02142   -5.7694499            0    3379.8396    81.758481    1887880.1 
   23600    284.79034   -6.6935078            0    3388.0813    80.695521    1919357.1 
   23700    287.11885   -3.7360373            0    3418.7952    80.010957    1951407.3 
   23800    286.60647   -3.4124458            0     3413.011    78.558021    1984141.8 
   23900     279.0186      -2.5545            0    3323.4196    75.246562    2017227.1 
   24000    275.47609   -4.4912733            0    3279.2552    73.113359    2050162.9 
   24100    282.48523   -4.5208873            0    3362.7764    73.758043    2083560.2 
   24200    282.95571   -3.0875882            0    3369.8179    72.659427    2118065.8 
   24300    283.02435   -1.5986744            0     3372.125    71.543663    2153238.8 
   24400    284.70965   -2.5522721            0    3391.2607    70.773493    2188988.3 
   24500    286.47787   -1.3420404            0    3413.5484    70.072655    2225442.3 
   24600    287.80436   -3.7742059            0    3426.9285     69.27213    2262641.1 
   24700    284.27972   -1.6415934            0    3387.0464    67.256207    2300457.7 
   24800     277.4808   -2.9483213            0    3304.6947    64.599619    2338386.9 
   24900    280.05918   -2.5584071            0    3335.8196    64.153867    2376360.9 
   25000    284.00744   -2.2288291            0    3383.2135    64.126328    2415367.1 
   25100    282.74718   -4.8219269            0    3365.5978    62.720188    2455365.6 
   25200    282.22902    -1.433517            0    3362.8096      61.5464      2495851 
   25300     286.8855   -1.7345569            0     3418.015    61.543404    2537034.5 
   25400    286.43347   -2.1772372            0     3412.184    60.465091    2579304.9 
   25500    277.58073   -1.5084777            0    3307.3258    57.616847    2622011.8 
   25600    269.01074   -1.6833694            0    3204.9944    54.949798    2664198.2 
   25700    277.32564   -3.6520789            0    3302.1415    55.773523    2706574.9 
   25800    281.79958   -1.9402292            0    3357.1839    55.741842    2750569.1 
   25900    285.05308   -1.3721848            0    3396.5345    55.492418    2795972.9 
   26000    284.29853   -2.5781575            0    3386.3341    54.448883      2842359 
   26100    281.71298   -2.4508502            0     3355.641    53.071948      2889198 
   26200    283.08401   -2.1471793            0    3372.2876    52.461433    2936450.1 
   26300    286.61414   -1.4139552            0     3415.101    52.268712      2984747 
   26400      283.676   -1.2841274            0    3380.2073    50.897278    3034131.9 
   26500    277.39675   -1.5550587            0    3305.0862    49.056854      3083782 
   26600    276.96963   -1.9428292            0     3299.607    48.093699    3133394.1 
   26700    283.72702   -3.3064832            0    3378.7932    48.570913    3184069.4 
   26800    284.04404   -1.0874136            0    3384.7912    47.781151    3236388.6 
   26900    282.90389   -1.6025191            0    3370.6852    46.806951    3289581.6 
   27000    283.69005  -0.90938092            0    3380.7496    46.202912    3343402.7 
   27100    287.16131   -1.7320969            0    3421.3052     46.11495    3398267.3 
   27200    285.46456   -3.1091488            0    3399.7025    44.995408    3454375.4 
   27300    276.00232   -2.5652715            0     3287.454    42.879411    3510818.4 
   27400    275.09851   -2.7750825            0    3276.4705    41.986141    3566799.7 
   27500    281.41608   -1.0020079            0    3353.5507    42.282088    3623924.3 
   27600     283.1242  -0.96533568            0    3373.9486    41.856892    3682930.7 
   27700    284.26509   -2.2001653            0    3386.3134    41.362374    3743200.3 
   27800    284.08406   -1.3067961            0    3385.0489    40.647488      3804470 
   27900     284.9299   -1.7558536            0    3394.6824    40.134932    3866624.7 
   28000    287.63699  -0.77166069            0    3427.9358    40.028592      3929947 
   28100    285.15738  -0.95836907            0    3398.1916     38.95048    3994592.9 
   28200    276.34788   -2.0189722            0    3292.1194    37.069235      4059495 
   28300    277.05164   -0.9383155            0    3301.5891    36.583579    4124014.1 
   28400    282.68858  -0.45979411            0    3369.2613    36.748597    4190092.3 
   28500     283.0005   -1.3730016            0    3372.0663    36.204224    4258175.9 
   28600    283.58939  -0.42662874            0    3380.0324     35.69613    4327431.4 
   28700    284.89186  -0.38110686            0    3395.6038    35.287815    4397830.9 
   28800    286.32029   -2.0994874            0    3410.9127    34.914554    4469519.4 
   28900    286.95841  -0.54985161            0    3420.0688    34.406381    4542545.4 
   29000    283.43474  -0.46628594            0    3378.1493    33.440168    4616675.8 
   29100    277.83781   -1.4581386            0    3310.4406    32.274153    4691043.7 
   29200      281.537   -1.5449516            0    3354.4491    32.159612      4765723 
   29300    284.61413   -1.0504564            0    3391.6238    32.000763    4842513.2 
   29400    282.48401   -1.1418032            0    3366.1409    31.251692    4921046.9 
   29500    282.06939   -0.8563979            0    3361.4839    30.715559    5000358.8 
   29600    287.75802  -0.66654114            0    3429.4837    30.842552    5081052.5 
   29700    285.76893  -0.98327144            0    3405.4565    30.133151    5163958.2 
   29800    279.85867  -0.39768061            0    3335.5902     29.05068    5247456.5 
   29900    279.46356  -0.60161331            0    3330.6765     28.55105    5331010.7 
   30000    279.95003   -1.3377623            0    3335.7392    28.154578    5415840.6 
   30100    281.97177  -0.44808589            0    3360.7285    27.913448    5502303.8 
   30200     284.6489   -0.4551767            0    3392.6336    27.732776    5590768.3 
   30300    284.12115   -0.1368957            0    3386.6609    27.248139    5681106.5 
   30400    282.83149 -0.053311984            0    3371.3714    26.696634    5772570.3 
   30500     286.3327  -0.03996813            0    3413.1201    26.600278    5865271.1 
   30600     286.9692  -0.69795631            0    3420.0493    26.222043    5960218.4 
   30700    279.88924 -0.024270075            0    3336.3281    25.181562    6056373.1 
   30800    274.20042  -0.17781183            0    3268.3623     24.28308    6151954.7 
   30900    282.62243  -0.32552959            0    3368.6071    24.639828    6248351.8 
   31000    283.64278  -0.41020176            0    3380.6853    24.338201    6348234.2 
   31100    283.01155  -0.11862028            0    3373.4524    23.906188    6450111.6 
   31200    283.75319 -0.079470679            0    3382.3322    23.592175    6553312.3 
   31300    285.89378 -0.073279142            0    3407.8547    23.395503      6658294 
   31400    286.36754 -0.046410513            0    3413.5289    23.063846    6765391.4 
   31500    283.58062  -0.13879882            0    3380.2158    22.476582    6874041.8 
   31600     279.2449  -0.34949945            0    3328.3222    21.782932    6983239.3 
   31700    281.93298  -0.42963601            0    3360.2846    21.650619    7093120.8 
   31800    285.28318  -0.80001643            0    3399.8495     21.56101    7205807.2 
   31900    282.99968   -0.1345585            0     3373.295     21.06106      7321052 
   32000    281.37729  -0.03706805            0    3354.0532    20.614921    7437235.8 
   32100     288.0104  -0.67110569            0    3432.4876    20.762624    7555141.7 
   32200    286.04335   -1.9911255            0    3407.7199    20.334911      7676508 
   32300    279.02981 -0.091199934            0    3326.0165    19.494572    7798666.3 
   32400    280.41351  -0.25649528            0    3342.3453    19.287208    7920508.7 
   32500    286.53325 -0.055040608            0    3415.4956    19.405292    8045489.7 
   32600    282.24344 -0.053307975            0    3364.3618    18.814774    8173778.3 
   32700     279.5677  -0.43088259            0    3332.0887     18.34207    8302491.3 
   32800     284.4709 -0.031880841            0     3390.935    18.381671      8432555 
   32900    285.02746  -0.20936161            0    3397.3918    18.127494    8566239.2 
   33000    281.50233  -0.23940674            0    3355.3414    17.623631    8701898.6 
   33100    281.37588   -1.0140026            0    3353.0595    17.341292    8838270.7 
   33200    289.18686   -0.1520902            0    3447.0303    17.550689    8977314.9 
   33300    285.44336  -0.17856035            0    3402.3803    17.050788    9120675.2 
   33400    279.79557  -0.14320441            0    3335.0926    16.454316    9264549.8 
   33500    280.64581 -0.030315674            0    3345.3405    16.253623    9408386.2 
   33600    285.24019 -0.030853791            0    3400.1062    16.265718    9555298.1 
   33700    282.84838 -0.080417349            0    3371.5456    15.878378    9705893.6 
   33800     280.8316 -0.020480245            0     3347.565    15.523075    9857772.8 
   33900    283.79803 -0.021609208            0    3382.9245    15.446566     10011236 
   34000    287.06399 -0.078754965            0    3421.7984    15.381834     10168556 
   34100    283.29517 -0.074884071            0     3376.877    14.944118     10329012 
   34200    280.63295 -0.058254889            0    3345.1593    14.576598     10490073 
   34300    282.01079 -0.034763994            0     3361.607    14.425238     10652410 
   34400    284.78289 -0.056434775            0    3394.6294    14.343658     10818099 
   34500    283.75443  -0.53801644            0    3381.8884    14.066321     10987379 
   34600     282.1143  -0.97399773            0    3361.9016    13.804343     11158483 
   34700    287.78347  -0.07613375            0    3430.3775    13.837288     11331950 
   34800    286.05393 -0.059966714            0    3409.7771    13.541393     11510133 
   34900    278.59612 -0.030756917            0    3320.9072    12.986434     11689385 
   35000    278.76057  -0.11451614            0    3322.7838    12.797938     11867668 
   35100    284.85364  -0.36195048            0    3395.1673    12.877572     12049754 
   35200     282.7028  -0.16760576            0    3369.7231    12.586685     12237001 
   35300    281.40178 -0.016354968            0    3354.3659    12.339816     12425972 
   35400    285.58102   -1.2265699            0    3402.9733    12.334741     12617307 
   35500     286.4717 -0.023003219            0    3414.7939    12.182123     12813522 
   35600    280.84927  -0.28460716            0    3347.5115    11.757876     13012372 
   35700    271.11469  -0.38638813            0    3231.3711     11.17955     13209941 
   35800    276.31389 -0.070418358            0    3293.6629    11.230425     13405943 
   35900    281.85843 -0.070931068            0    3359.7546    11.285438     13608302 
   36000    284.72403    -1.058837            0    3392.9254    11.223012     13817609 
   36100    284.35382 -0.029248465            0     3389.542    11.042497     14031339 
   36200    282.46151  -0.21484563            0    3366.7997    10.801083     14247202 
   36300     283.3584 -0.097849527            0    3377.6078    10.673532     14464708 
   36400    287.06321 -0.026509933            0    3421.8414    10.650598     14686288 
   36500    284.67813  -0.24610001            0    3393.1911    10.399829     14912742 
   36600    275.62446 -0.055090853            0      3285.46    9.9195974     15139817 
   36700    274.75475   -0.0110356            0    3275.1369    9.7442518     15364233 
   36800    281.85516 -0.017197566            0    3359.7694    9.8493329     15593050 
   36900    283.48958 -0.052379566            0    3379.2169    9.7580479     15829702 
   37000    284.24005 -0.074120261            0     3388.141    9.6367231     16071131 
   37100    284.03898  -0.56892329            0    3385.2494    9.4821758     16315953 
   37200     284.4389  -0.01760651            0    3390.5679    9.3571585     16563679 
   37300    286.82551 -0.0078361013            0    3419.0266    9.2945497     16815314 
   37400    285.67872 -0.005430545            0    3405.3591     9.118355     17071744 
   37500    278.64626 -0.0090281487            0    3321.5267    8.7614244     17329799 
   37600    276.53812 -0.027085115            0     3296.379    8.5683171     17586012 
   37700    283.66834  -0.35679278            0    3381.0434    8.6588051     17846123 
   37800    283.42238  -0.16403491            0    3378.3042    8.5243555     18114603 
   37900    282.40359 -0.040241503            0    3366.2838     8.368797     18386973 
   38000    284.75112  -0.37775413            0    3393.9294    8.3116576     18662304 
   38100    287.76329  -0.09499104            0    3430.1181    8.2767302     18943487 
   38200    283.33927 -0.0045363716            0    3377.4731    8.0287279     19229892 
   38300    273.01105 -0.0096040278            0     3254.353    7.6232243     19514447 
   38400    277.91713 -0.0058911946            0    3312.8384    7.6498674     19796009 
   38500    281.66311 -0.024924414            0    3357.4724     7.640993     20085797 
   38600    283.78018 -0.078163432            0    3382.6551     7.585471     20383948 
   38700    284.52775  -0.09066361            0    3391.5539    7.4935897     20688035 
   38800    283.75366  -0.01702597            0    3382.4003    7.3640072     20996132 
   38900    284.62198  -0.42611614            0    3392.3417    7.2764139     21307276 
   39000    287.08568  -0.15114502            0    3421.9847     7.233456     21623596 
   39100    284.19623 -0.061016678            0    3387.6318     7.056164     21945480 
   39200    276.74005 -0.001647674            0    3298.8115    6.7720272     22267488 
   39300    278.64227 -0.0017233864            0    3321.4864    6.7220777     22587146 
   39400    284.12253 -0.0018705647            0    3386.8124    6.7563338     22914607 
   39500    283.15759 -0.0024246411            0    3375.3094    6.6358487     23251413 
   39600    282.49546  -0.13622402            0     3367.283    6.5240565     23591821 
   39700    285.59222 -0.0072476194            0    3404.3261    6.5014086     23936172 
   39800    287.52291 -0.0028222382            0    3427.3449    6.4505343     24288140 
   39900    281.09587 -0.0022163109            0    3350.7335    6.2150003     24645124 
   40000    272.69027 -0.0057607651            0     3250.533    5.9441249     24997580 
   40100    279.40905 -0.064486486            0    3330.5639    6.0060169     25348225 
   40200    282.16518   -0.3496788            0    3363.1325    5.9783926     25710327 
   40300    284.02687 -0.045870221            0    3385.6281    5.9336385     26081911 
   40400    284.50818 -0.011118215            0    3391.4001    5.8588959     26460209 
   40500    283.80234 -0.020012694            0    3382.9775    5.7609841     26842946 
   40600    284.93186 -0.013485265            0    3396.4483    5.7018755     27229313 
   40700    286.76572 -0.0031101744            0    3418.3187    5.6570529     27621952 
   40800    283.48987  -0.04003517            0    3379.2327    5.5127041     28020514 
   40900    277.04386 -0.081371757            0    3302.3533     5.311721     28418443 
   41000    280.29211  -0.12539317            0    3341.0292    5.2999775     28814260 
   41100    284.76491 -0.043755929            0    3394.4278    5.3100697     29220534 
   41200    282.98517 -0.0066690185            0      3373.25    5.2028635     29637204 
   41300    281.75113 -0.0075959819            0     3358.539    5.1078789     30056658 
   41400    286.37291 -0.027945462            0    3413.6115    5.1194256     30480258 
   41500    287.26475   -1.0139971            0    3423.2563     5.061338     30914724 
   41600    279.69997 -0.037568887            0    3334.0586    4.8608449     31353401 
   41700    271.69574 -0.0041726292            0    3238.6795    4.6577766     31784914 
   41800    280.16622 -0.0020383097            0     3339.652    4.7391065     32213438 
   41900    284.00004 -0.0022593804            0    3385.3519    4.7384541     32658739 
   42000    284.53472 -0.0010494485            0    3391.7266    4.6816819     33117041 
   42100    283.06414 -0.0059774628            0     3374.192    4.5931453     33580790 
   42200    282.49736 -0.001814393            0      3367.44    4.5212516     34046586 
   42300    285.63631 -0.012134717            0    3404.8468    4.5091258     34517155 
   42400    286.73756  -0.01159361            0    3417.9745    4.4643608     34997696 
   42500    280.79683 -0.0025786695            0    3347.1685    4.3120239     35483675 
   42600    273.55884 -0.00096292266            0    3260.8914    4.1448684     35963188 
   42700    280.75587 -0.0048964077            0    3346.6779    4.1982302     36440075 
   42800     283.1097 -0.0075560229            0    3374.7335    4.1769066     36933089 
   42900    283.62659 -0.0019924274            0    3380.9006    4.1281473     37437734 
   43000    284.10663 -0.0076700583            0    3386.6171    4.0794232     37948815 
   43100    285.25009 -0.0021104256            0    3400.2529     4.040823     38465706 
   43200    286.81005 -0.00087203482            0    3418.8493    4.0082973     38989948 
   43300     284.6546 -0.00040734406            0    3393.1563    3.9246948     39521254 
   43400    278.19903 -0.00029791377            0    3316.2043    3.7848713     40051883 
   43500     279.1063 -0.00049078486            0     3327.019    3.7480724     40577009 
   43600    284.95761 -0.0014109961            0    3396.7673    3.7768342     41112166 
   43700    283.40585 -0.021566055            0    3378.2497     3.706577     41662571 
   43800    281.31426 -0.0037995917            0    3353.3352    3.6310177     42216330 
   43900    285.40042 -0.0011762877            0    3402.0458    3.6358652     42772530 
   44000    288.09634 -0.00091542154            0    3434.1822    3.6219185     43342832 
   44100    281.76295 -0.0029949408            0    3358.6844    3.4956438     43921190 
   44200    277.49159 -0.026408684            0    3307.7453    3.3984377     44491671 
   44300    287.61391   -0.1892868            0    3428.2431    3.4772609     45063273 
   44400    285.43687 -0.018145621            0    3402.4634    3.4065423     45657057 
   44500     279.0143 -0.0015825063            0    3325.9212    3.2870308     46253076 
   44600    279.74264 -0.0051875275            0    3334.5996    3.2542003     46841514 
   44700    285.32568  -0.93191119            0    3400.2243    3.2792664     47439030 
   44800     283.4683 -0.0069305719            0    3379.0088    3.2144394     48052407 
   44900    281.07156 -0.0024382693            0    3350.4435    3.1469378     48668320 
   45000    285.29831 -0.0016858856            0    3400.8282    3.1542741     49285331 
   45100    288.98937 -0.011282042            0    3444.8169    3.1544853     49919205 
   45200    282.62009 -0.0004526361            0    3368.9043    3.0456899     50563337 
   45300    279.41926 -0.0010031938            0     3330.749    2.9738487     51198310 
   45400    281.00541 -0.019330728            0    3349.6381    2.9541908     51830718 
   45500    281.93572  -0.53161913            0    3360.2153    2.9266302     52472354 
   45600    282.25193  -0.02216039            0    3364.4941    2.8950975     53123139 
   45700    283.48695 -0.0014347137            0    3379.2365    2.8722111     53781723 
   45800    285.96573 -0.0012305578            0    3408.7845    2.8617802     54449741 
   45900     291.9468 -0.0083129989            0    3480.0733    2.8854431     55132369 
   46000    286.06838 -0.035293969            0     3409.974    2.7918566     55831838 
   46100    277.14446  -0.30367639            0    3303.3302    2.6713743     56516844 
   46200    279.66654 -0.017000883            0    3333.6807    2.6648278     57185154 
   46300    283.35972 -0.0036356674            0    3377.7177    2.6683228     57865125 
   46400     283.6111 -0.020377723            0    3380.6974    2.6388464     58562531 
   46500    282.94532 -0.0044755208            0    3372.7771    2.6013532     59267966 
   46600    286.59968 -0.0011420907            0    3416.3414    2.6037577     59978177 
   46700    289.37994 -0.010973703            0    3449.4729    2.5975109     60705138 
   46800    280.76597 -0.0033607878            0    3346.7999    2.4900753     61439723 
   46900    276.49445 -0.0032132378            0    3295.8824    2.4240293     62153537 
   47000    279.90055 -0.002070197            0    3336.4851    2.4263186     62859900 
   47100    281.76667 -0.00052915123            0    3358.7313     2.414818     63580446 
   47200    284.15008 -0.00030129759            0    3387.1423     2.407385     64316244 
   47300    284.87028 -0.00042507457            0    3395.7272    2.3856864     65065712 
   47400    283.58405  -0.00143158            0     3380.394    2.3476342     65821744 
   47500    282.47988 -0.009755199            0    3367.2237    2.3119429     66577150 
   47600    284.08567  -0.49515883            0    3385.8797     2.298147     67333455 
   47700    285.67947 -0.022774037            0    3405.3506    2.2858408     68099346 
   47800    283.87748 -0.052026701            0    3383.8411    2.2458027     68874435 
   47900    279.26612 -0.020112842            0    3328.9045    2.1849088     69645914 
   48000    280.22079 -0.053626503            0    3340.2509    2.1686416     70406133 
   48100    286.07864 -0.0014840055            0    3410.1301    2.1900967     71177073 
   48200    284.36061 -0.00045647171            0    3389.6518     2.152947     71970495 
   48300    279.96052 -0.003384037            0    3337.1986    2.0965369     72763154 
   48400    281.06475  -0.97775401            0     3349.387    2.0820006     73543415 
   48500    287.49978 -0.0056251021            0    3427.0663     2.107463     74335106 
   48600    284.28401 -0.00040421908            0    3388.7387    2.0613026     75150019 
   48700    278.37619 -0.00022542059            0    3318.3161    1.9970187     75957107 
   48800    281.47239 -0.00054531732            0    3355.2234    1.9984849     76745565 
   48900    287.24816 -0.0011085534            0    3424.0715    2.0182929     77551679 
   49000    282.92939 -0.0018138618            0    3372.5899    1.9669388     78379964 
   49100    278.94909 -0.0066028596            0    3325.1389    1.9192606     79196678 
   49200     284.3851 -0.028724564            0    3389.9154     1.936939     80001564 
   49300    287.38811  -0.41033816            0    3425.3305    1.9367595     80830353 
   49400    282.35431 -0.010793998            0    3365.7258    1.8837741     81673276 
   49500    279.69993 -0.0018809721            0    3334.0939    1.8473865     82499710 
   49600    285.67779 -0.00039174353            0    3405.3529    1.8683469     83317717 
   49700      288.403 -0.00017728244            0    3437.8384    1.8672154     84163508 
   49800    283.03188 -0.00038303648            0    3373.8131     1.813926     85022567 
   49900    279.88773 -0.0037916464            0    3336.3305    1.7762429     85861521 
   50000    283.48258 -0.00096082833            0     3379.185    1.7819355     86686723 
   50100    287.70906 -0.00064171876            0     3429.566    1.7910657     87530688 
   50200    283.93517 -0.00050507813            0    3384.5804    1.7503117     88393874 
   50300    281.29365 -0.00036546609            0    3353.0929    1.7174865     89245229 
   50400    281.82013 -0.00037284985            0    3359.3687    1.7046983     90083013 
   50500    284.67514 -0.00050903087            0     3393.401    1.7060436     90923840 
   50600    286.85112 -0.00041133248            0    3419.3394    1.7030253     91781228 
   50700     287.7491 -0.00047831529            0    3430.0434    1.6922599     92654238 
   50800    281.81397 -0.0010598995            0    3359.2945    1.6418555     93528879 
   50900    277.27714 -0.0013642428            0    3305.2141    1.6009852     94372353 
   51000    283.07795 -0.00068146686            0    3374.3619    1.6203786     95193621 
   51100    285.38385 -0.0022789627            0    3401.8472    1.6191885     96039450 
   51200    282.55422 -0.0005594588            0    3368.1191    1.5888629     96902217 
   51300    280.74969 -8.5878889e-05            0     3346.609    1.5649599     97754016 
   51400    287.58145 -8.8518833e-05            0    3428.0454    1.5892989     98599293 
   51500    288.25982 -0.00044391683            0    3436.1314    1.5790048     99476166 
   51600    280.60287 -0.0001794438            0    3344.8588    1.5235788 1.0035654e+08 
   51700    278.92987 -0.00018332482            0    3324.9162    1.5019146 1.0119715e+08 
   51800    281.77573 -0.00030553442            0    3358.8395    1.5049993 1.020201e+08 
   51900    282.49287 -0.0030302383            0    3367.3852    1.4966037 1.0285326e+08 
   52000    283.08332 -0.0052935497            0    3374.4214     1.487557 1.0369485e+08 
   52100    284.68133  -0.22718642            0    3393.2481    1.4835418 1.0454266e+08 
   52200    288.31311 -0.0011990798            0    3436.7658    1.4904963 1.0540267e+08 
   52300    287.27673 -0.0017181195            0    3424.4114      1.47284 1.0628275e+08 
   52400    277.87419 -0.00057194298            0    3312.3319    1.4131303 1.0714807e+08 
   52500    278.16809 -0.00029891223            0    3315.8355     1.404022 1.0795725e+08 
   52600    283.53404 -0.00035252596            0    3379.7989    1.4205983 1.0875577e+08 
   52700    283.41201 -0.00065297964            0     3378.344    1.4093122 1.0957951e+08 
   52800    282.43602 -0.00043207419            0    3366.7102    1.3938933 1.1041014e+08 
   52900    283.96218 -0.00030393532            0    3384.9025    1.3910215 1.1123593e+08 
   53000     289.2403 -0.00079899744            0    3447.8186    1.4062946 1.1207294e+08 
   53100    285.53923 -0.018768516            0    3403.6829    1.3776633 1.1293644e+08 
   53200    276.65257 -0.010499073            0    3297.7599    1.3250093 1.1377064e+08 
   53300    279.05742 -0.0022093883            0    3326.4346    1.3275098 1.1454431e+08 
   53400    282.50306 -0.00073071124            0     3367.509    1.3349525 1.153123e+08 
   53500    283.73679 -0.00092062519            0    3382.2152    1.3316729 1.1610108e+08 
   53600     283.8322 -0.0016006949            0    3383.3518     1.322977 1.1690345e+08 
   53700    284.08258 -0.0027428516            0    3386.3353    1.3150946 1.1770776e+08 
   53800    285.25439 -0.0041424075            0    3400.3022    1.3115581 1.1851185e+08 
   53900     283.8828 -0.0054779297            0    3383.9511    1.2964414 1.1931709e+08 
   54000    280.27038 -0.0054005167            0    3340.8902    1.2715451 1.2010522e+08 
   54100    281.01226 -0.0035437811            0    3349.7355    1.2669515 1.2085997e+08 
   54200    287.48926 -0.0018083275            0    3426.9448    1.2881242 1.2161349e+08 
   54300    285.77772 -0.00083298334            0    3406.5438    1.2722032 1.2240245e+08 
   54400    278.88864 -0.00039249474            0    3324.4245    1.2336778 1.2318206e+08 
   54500    278.96024 -0.0002172965            0    3325.2782    1.2267912 1.2390537e+08 
   54600    289.20963 -0.00031275772            0    3447.4535    1.2645268 1.2462442e+08 
   54700    284.51978 -0.00051699147            0     3391.549    1.2363763 1.2539498e+08 
   54800     278.4195 -0.00025132876            0    3318.8324    1.2026886 1.2614351e+08 
   54900     281.1431 -0.00019342668            0    3351.2985    1.2078111 1.2683727e+08 
   55000    286.67169 -0.00027234467            0    3417.2006    1.2248504 1.2753231e+08 
   55100    284.47445 -0.00087004976            0    3391.0084    1.2085674 1.2825982e+08 
   55200    281.64153 -0.016714509            0    3357.2234    1.1898476 1.2897854e+08 
   55300    281.81285 -0.034474229            0    3359.2478    1.1842338 1.2966676e+08 
   55400    285.55182 -0.0013948968            0    3403.8504     1.193763 1.3034215e+08 
   55500    294.64394 -0.00010138745            0     3512.232    1.2251201 1.310501e+08 
   55600    287.17037 -3.825241e-05            0    3423.1453    1.1870642 1.3182081e+08 
   55700    281.61256 -0.00025800133            0    3356.8945    1.1576619 1.3255275e+08 
   55800    281.45495  -0.27784424            0    3354.7382    1.1510235 1.3321222e+08 
   55900    285.04074 -0.0040044072            0    3397.7555    1.1604925 1.3383867e+08 
   56000    286.88009  -0.10709118            0     3419.578     1.162331 1.3447745e+08 
   56100    280.50759 -0.081361385            0    3343.6418    1.1310819 1.3512574e+08 
   56200    275.14211 -0.0037861254            0    3279.7615    1.1047135 1.3571394e+08 
   56300    282.37824 -0.0047382503            0    3366.0172    1.1293977 1.3623888e+08 
   56400    284.32382 -0.0025963546            0    3389.2111    1.1326167 1.3678795e+08 
   56500    282.94904 -0.0001283565            0    3372.8259    1.1224077  1.37365e+08 
   56600     281.5497 -3.8392315e-05            0    3356.1454    1.1122214 1.3793751e+08 
   56700    284.07621 -1.6907222e-05            0    3386.2621     1.117699 1.3849324e+08 
   56800    288.54872 -1.1484161e-05            0    3439.5756    1.1306343 1.3906427e+08 
   56900    283.73502 -8.8172915e-06            0    3382.1951    1.1069608 1.3966876e+08 
   57000    276.82803 -9.2660733e-06            0    3299.8619    1.0756767 1.4023191e+08 
   57100    280.44384 -3.4296373e-05            0    3342.9633    1.0859868 1.4071484e+08 
   57200    283.29966 -0.00015246923            0    3377.0053    1.0933949 1.4118466e+08 
   57300    283.48607 -0.00017640329            0    3379.2273    1.0903476 1.416724e+08 
   57400    283.01049 -4.4669241e-05            0    3373.5584    1.0847312 1.4216705e+08 
   57500    283.20504 -1.2227211e-05            0    3375.8775    1.0817574 1.4265587e+08 
   57600    285.14062 -9.6929983e-06            0    3398.9502    1.0854598 1.4314095e+08 
   57700    285.00874 -1.2617226e-05            0     3397.378    1.0812179 1.4363606e+08 
   57800    280.51254 -2.8923873e-05            0    3343.7822    1.0605593 1.4412386e+08 
   57900    278.38596 -0.00012261322            0    3318.4327    1.0493642 1.4455715e+08 
   58000    286.21892 -0.00018738597            0    3411.8036    1.0759907 1.4494669e+08 
   58100    287.56072 -0.00033498211            0     3427.798    1.0778149 1.4537972e+08 
   58200    282.25761 -0.000915299            0     3364.583     1.054576 1.4584313e+08 
   58300    280.59703 -0.0012440657            0    3344.7881    1.0453403 1.4626602e+08 
   58400    282.38551 -0.00028678603            0    3366.1083    1.0492931 1.4664391e+08 
   58500    283.33617 -0.00017938494            0    3377.4404    1.0502085 1.4700936e+08 
   58600    283.17508 -0.00094241426            0    3375.5194    1.0470132 1.4737407e+08 
   58700    282.89785 -0.0012909325            0    3372.2145    1.0434492 1.4773262e+08 
   58800    284.23234 -0.00064132216            0    3388.1226    1.0459023 1.4808146e+08 
   58900    287.49713 -0.001272551            0    3427.0391    1.0553607 1.4843991e+08 
   59000    283.80829 -0.0018008316            0    3383.0667    1.0391165 1.4882597e+08 
   59100    278.26934 -0.001024068            0    3317.0417    1.0164209 1.4917977e+08 
   59200    281.61161 -0.00038267296            0     3356.883    1.0267324 1.4945543e+08 
   59300    288.19788 -0.00045501413            0     3435.393    1.0488722 1.4972234e+08 
   59400    285.46405 -0.0019427684            0    3402.8036    1.0367009 1.5004301e+08 
   59500    282.23319 -0.00045736746            0    3364.2923    1.0227622 1.5036675e+08 
   59600    281.76345 -0.0004086034            0     3358.693    1.0191377 1.5065036e+08 
   59700    284.94632 -0.00053551938            0    3396.6335    1.0289385 1.5090096e+08 
   59800    292.07662 -0.0010945521            0     3481.628    1.0527863 1.5117317e+08 
   59900    285.76501 -0.00031232334            0    3406.3927    1.0276642 1.5152219e+08 
   60000    279.50643 -0.0012473829            0    3331.7879    1.0030113 1.5184625e+08 
   60100    282.12982 -0.052613211            0     3363.008    1.0108406 1.5207742e+08 
   60200    286.39578 -0.029633977            0    3413.8824    1.0248182 1.5227448e+08 
   60300    284.89218 -0.0011878923            0    3395.9875    1.0180037 1.5249278e+08 
   60400    275.38504 -0.0073694163            0    3282.6538    0.9827434 1.5269185e+08 
   60500    278.11469  -0.42180133            0    3314.7774   0.99159795 1.5277897e+08 
   60600    283.42603 -0.002591575            0    3378.5092    1.0106358 1.5281381e+08 
   60700    284.34201 -0.0045346942            0     3389.426    1.0134898 1.528757e+08 
   60800    282.75573 -0.006059586            0    3370.5156    1.0072208 1.5296883e+08 
   60900    279.61009 -0.087812308            0     3332.937   0.99534498 1.5306088e+08 
   61000    280.10731 -0.028577122            0    3338.9232   0.99682413 1.5311347e+08 
   61100    287.46917 -0.0011997553            0    3426.7059    1.0227849 1.5315285e+08 
   61200    286.92759 -0.00023867589            0    3420.2511    1.0201268 1.5326275e+08 
   61300    279.68743 -0.00019093139            0    3333.9466   0.99340734 1.5341368e+08 
   61400    279.69778 -0.0010394809            0     3334.069   0.99281118 1.5351136e+08 
   61500    282.63606 -0.00072482462            0    3369.0944    1.0029136 1.535615e+08 
   61600    284.08803 -0.00031079666            0    3386.4027    1.0077378 1.5361153e+08 
   61700    283.56145 -0.0035207853            0    3380.1225    1.0054159 1.5368045e+08 
   61800    279.62429 -0.094568108            0    3333.0995   0.99090961 1.5375292e+08 
   61900    276.81023 -0.0018265723            0    3299.6479   0.98088773 1.5377321e+08 
   62000    284.83691 -0.0001991904            0    3395.3297    1.0096247 1.5372864e+08 
   62100    287.28357 -7.301752e-05            0    3424.4946    1.0183207 1.5372509e+08 
   62200    282.48222 -6.1557202e-05            0    3367.2613    1.0008814 1.5378963e+08 
   62300    279.82492 -7.6820943e-05            0    3335.5856   0.99107859 1.5384976e+08 
   62400    283.55955 -0.00087236566            0    3380.1026    1.0041629 1.5387155e+08 
   62500    295.05273 -0.0070658833            0     3517.098    1.0445113 1.5392262e+08 
   62600    291.03811 -0.00041618403            0    3469.2493    1.0289253 1.5412901e+08 
   62700    284.26989   -0.0380657            0    3388.5327    1.0030011 1.5443064e+08 
   62800    279.64372 -0.0028885952            0    3333.4228   0.98495511 1.5470561e+08 
   62900    281.45122 -0.0034400598            0    3354.9681   0.99015274 1.5488814e+08 
   63000    287.36302 -0.0019780443            0    3425.4397    1.0101364 1.550132e+08 
   63100    285.95751 -0.00075521676            0    3408.6869    1.0042511 1.5515917e+08 
   63200     276.6896 -0.0077777657            0    3298.2041   0.97085419 1.5529387e+08 
   63300    278.38074 -0.0011980236            0    3318.3695   0.97672311 1.5530513e+08 
   63400    282.92895 -0.0059958358            0    3372.5805   0.99324958 1.5521555e+08 
   63500    285.30213 -0.006500685            0    3400.8689    1.0023121 1.5510224e+08 
   63600     283.3637 -0.0060193993            0    3377.7628   0.99613582 1.5500364e+08 
   63700    276.68892 -0.001194781            0    3298.2024   0.97340573 1.5488735e+08 
   63800    278.19918 -0.0002833649            0    3316.2061   0.98009273 1.5467037e+08 
   63900    287.83761 -0.00090250308            0    3431.0981    1.0158584 1.5439477e+08 
   64000    285.57608  -0.53077822            0    3403.6101    1.0088443 1.541879e+08 
   64100    280.55062 -0.0016179878            0    3344.2346   0.99250152 1.540274e+08 
   64200    280.81566 -0.00084929164            0    3347.3946   0.99460563 1.5384686e+08 
   64300    288.52981 -0.0004032934            0    3439.3498    1.0231856 1.5365782e+08 
   64400     291.8353 -0.00049875421            0     3478.752    1.0354773 1.5357327e+08 
   64500    280.99246 -0.0015072681            0    3349.5016   0.99666859 1.5362499e+08 
   64600    281.09593 -0.00082140708            0    3350.7356   0.99665917 1.5368311e+08 
   64700    284.94275 -0.017762485            0    3396.5738    1.0099555 1.5373302e+08 
   64800    286.30054  -0.24729285            0    3412.5295    1.0139536 1.5382783e+08 
   64900    280.60953 -0.0037723039            0    3344.9346   0.99299696 1.5398258e+08 
   65000    276.77326 -0.00072142287            0    3299.2084   0.97858164 1.5411515e+08 
   65100    285.69275 -0.00054459649            0    3405.5312    1.0097326 1.5417402e+08 
   65200    287.60323 -8.2580727e-05            0     3428.305     1.015875 1.5426663e+08 
   65300    282.69222 -3.9248833e-05            0    3369.7646   0.99744191 1.5443467e+08 
   65400    279.97352 -6.2429928e-05            0    3337.3569   0.98673282 1.5460941e+08 
   65500    283.89065 -0.00010099228            0    3384.0501   0.99965422 1.5474613e+08 
   65600    291.44371 -0.00011724805            0    3474.0845    1.0252043 1.5490406e+08 
   65700    284.70519 -0.00013266435            0    3393.7596   0.99971496 1.551807e+08 
   65800     280.1204 -0.00018364705            0    3339.1076   0.98161118 1.5549761e+08 
   65900    282.69239 -9.5585098e-05            0    3369.7666   0.98888063 1.5577178e+08 
   66000    286.14449 -0.00033888465            0    3410.9162   0.99931406 1.5602774e+08 
   66100    284.55232 -0.0002586662            0    3391.9372   0.99196953 1.5630838e+08 
   66200    277.14612 -3.3438632e-05            0    3303.6536   0.96447779 1.5657958e+08 
   66300     278.5837 -3.7890246e-05            0    3320.7899   0.96857059 1.5672669e+08 
   66400     287.4073 -9.0597798e-05            0    3425.9694   0.99908131 1.5675286e+08 
   66500    285.25678 -0.00018829281            0    3400.3347   0.99155699 1.5676055e+08 
   66600    280.78526 -0.0011227774            0     3347.032   0.97623796 1.5672444e+08 
   66700    280.69301 -0.0064361689            0    3345.9271   0.97689617 1.5656665e+08 
   66800    288.77703 -0.0006487413            0    3442.2965    1.0069416 1.5627039e+08 
   66900    290.65214 -0.00026297053            0    3464.6487    1.0156443 1.5593742e+08 
   67000    282.51144 -0.00012947675            0    3367.6096   0.98934894 1.5559838e+08 
   67100    282.16339 -0.00014384556            0    3363.4607   0.99098945 1.5514941e+08 
   67200    283.98199 -0.00038062051            0    3385.1386    1.0011517 1.5456434e+08 
   67300    284.83749 -0.001080665            0    3395.3356    1.0087022 1.5386942e+08 
   67400    280.73992 -0.0016289368            0    3346.4911   0.99925764 1.5308922e+08 
   67500    277.91431 -0.0016296713            0     3312.809   0.99500719 1.5219578e+08 
   67600     285.4122 -0.0065749218            0    3402.1809    1.0285658 1.5120164e+08 
   67700     290.5811 -0.0074688415            0    3463.7946    1.0536243 1.5027867e+08 
   67800    285.40818 -0.0022462505            0    3402.1373    1.0398321 1.4956187e+08 
   67900    282.97087 -0.00084936136            0    3373.0853    1.0346531 1.4902708e+08 
   68000    281.91095 -0.00044515653            0    3360.4512    1.0334001 1.4864895e+08 
   68100    282.77326 -0.00032888959            0    3370.7303     1.038158 1.484203e+08 
   68200    286.55004 -0.00022568749            0    3415.7505    1.0524475 1.4836057e+08 
   68300    287.11702 -0.00015351694            0    3422.5092    1.0533793 1.4852264e+08 
   68400    279.25013 -0.00010847812            0    3328.7338    1.0218808 1.4890581e+08 
   68500    278.13994 -0.00012990355            0    3315.5001    1.0144189 1.494048e+08 
   68600     284.5859 -0.00037318685            0    3392.3373    1.0338908 1.4998821e+08 
   68700     284.6928 -0.00093030033            0     3393.611    1.0293051 1.5071295e+08 
   68800    282.17569 -0.00036245907            0     3363.607    1.0145457 1.5155364e+08 
   68900    281.48631 -0.00039464769            0    3355.3894    1.0062831 1.5242476e+08 
   69000    287.55587 -0.00044682254            0    3427.7401    1.0223177 1.5326914e+08 
   69100    289.53543 -0.00042014112            0    3451.3371    1.0236815 1.5411867e+08 
   69200    280.58835 -0.00042214754            0    3344.6855   0.98676787 1.5494338e+08 
   69300    279.36617 -0.0016700535            0    3330.1155   0.97832886 1.5559902e+08 
   69400    282.93355 -0.0046434611            0    3372.6366   0.98789222 1.5606001e+08 
   69500    285.45763 -0.0010682821            0    3402.7279   0.99459623 1.5639145e+08 
   69600    283.48547 -0.00015323423            0    3379.2202   0.98615804 1.5664004e+08 
   69700     274.9372 -4.8967998e-05            0    3277.3227   0.95558808 1.5677663e+08 
   69800    277.96695 -3.2333182e-05            0    3313.4381   0.96649724 1.5671519e+08 
   69900    285.10744 -3.1252398e-05            0    3398.5546   0.99253475 1.5652416e+08 
   70000    284.63574 -0.00013782739            0    3392.9317   0.99219205 1.5631915e+08 
   70100    281.22533 -0.00093687677            0    3352.2779   0.98165638 1.5610368e+08 
   70200    279.61503 -0.00067600747            0     3333.083   0.97770338 1.558374e+08 
   70300    286.14951 -0.00026690258            0    3410.9761    1.0026094 1.5551765e+08 
   70400    290.01948 -0.00022806375            0    3457.1072    1.0179527 1.5524515e+08 
   70500    282.42848 -0.0016025907            0    3366.6192   0.99245451 1.5506573e+08 
   70600    280.66932 -0.0020118555            0    3345.6491   0.98743308 1.5488346e+08 
   70700    283.36409 -0.00071676783            0    3377.7728    0.9982902 1.5467007e+08 
   70800    285.75772 -0.00027241197            0    3406.3058      1.00803 1.5446958e+08 
   70900      282.474 -0.00010286876            0    3367.1633   0.99743808 1.5431604e+08 
   71000    276.09299 -0.00010946627            0       3291.1   0.97591776 1.5415609e+08 
   71100    281.89044 -0.0018349355            0    3360.2053   0.99794613 1.539186e+08 
   71200    286.83647 -0.0026868639            0    3419.1625    1.0169923 1.5368598e+08 
   71300     284.3396 -0.0016484901            0    3389.4002    1.0091446 1.5353305e+08 
   71400    281.25934  -0.99922712            0    3351.6851   0.99884577 1.5342825e+08 
   71500     281.8797 -0.0023745375            0    3360.0768    1.0017513 1.5332802e+08 
   71600    291.19169 -0.0002624594            0    3471.0802    1.0353729 1.5325005e+08 
   71700    292.20697 -0.0011360022            0    3483.1817    1.0385118 1.5331946e+08 
   71800    283.62075 -0.00042657084            0    3380.8324    1.0064784 1.5355075e+08 
   71900    280.70186 -0.00064576155            0    3346.0383   0.99437181 1.538207e+08 
   72000    282.55967 -0.057154013            0    3368.1274   0.99925849 1.5407391e+08 
   72100    287.48233 -0.085709936            0    3426.7782    1.0149371 1.5433297e+08 
   72200    286.35275 -0.00085659016            0    3413.3982    1.0088882 1.5465948e+08 
   72300    276.57405 -0.00027554294            0    3296.8341   0.97218171 1.5501811e+08 
   72400    279.13409 -0.0010046725            0    3327.3498   0.97954306 1.5527714e+08 
   72500    284.48048 -0.010121095            0     3391.071   0.99717484 1.5545183e+08 
   72600    284.60083 -0.0067633231            0    3392.5089   0.99656592 1.5561308e+08 
   72700    282.06118 -0.00062143902            0    3362.2418   0.98672646 1.557632e+08 
   72800    278.91088 -0.00033840675            0    3324.6897   0.97510999 1.5585842e+08 
   72900    279.68277 -0.00053461815            0    3333.8907   0.97789418 1.5584476e+08 
   73000    287.13597 -0.00059301231            0    3422.7347    1.0046613 1.5573501e+08 
   73100    286.82386 -0.058116961            0    3418.9567    1.0076414 1.5562632e+08 
   73200    279.93698 -0.00055129298            0    3336.9208   0.98083278 1.5551907e+08 
   73300    279.89551 -0.00060191989            0    3336.4265   0.98194598 1.5531974e+08 
   73400    283.61947 -0.00023863181            0    3380.8175   0.99696821 1.5501481e+08 
   73500    284.36852 -8.547134e-05            0    3389.7464    1.0019338 1.5465395e+08 
   73600    283.32365 -3.4543899e-05            0    3377.2913    1.0008195 1.5425726e+08 
   73700    281.73656 -4.7765076e-05            0    3358.3728   0.99806554 1.5381641e+08 
   73800    279.74719 -0.0003063302            0    3334.6588   0.99426985 1.5331333e+08 
   73900    281.12871 -0.00035038779            0    3351.1269    1.0029933 1.5273044e+08 
   74000    287.26302 -0.00012188426            0    3424.2496    1.0290647 1.5210922e+08 
   74100    286.68793 -6.9265162e-05            0    3417.3944    1.0307472 1.5155693e+08 
   74200    279.25028 -0.00023509141            0    3328.7355    1.0071145 1.5108913e+08 
   74300    280.31277 -0.0017295614            0    3341.3992    1.0140119 1.5063216e+08 
   74400    284.14502 -0.0023454132            0      3387.08    1.0307823 1.502072e+08 
   74500     284.7418  -0.47410363            0     3393.722    1.0348115 1.4988407e+08 
   74600    283.08179 -0.0025626948            0    3374.4058     1.030471 1.4969032e+08 
   74700    282.41348 -6.3233767e-05            0    3366.4418    1.0285237   1.4962e+08 
   74800    282.77419 -4.2019394e-05            0    3370.7417    1.0294561 1.4967542e+08 
   74900    283.10342 -7.3587023e-05            0    3374.6661    1.0292898 1.4987389e+08 
   75000    283.32046 -0.00021192781            0    3377.2531    1.0276098 1.5023397e+08 
   75100    284.41971 -0.00025536418            0    3390.3565    1.0279201 1.5077135e+08 
   75200    285.95727 -0.00035376133            0    3408.6845    1.0284598 1.5150684e+08 
   75300    282.90944 -0.00032525117            0    3372.3536    1.0112611 1.5244127e+08 
   75400    278.51912 -0.00016719807            0      3320.02   0.98883226 1.5347968e+08 
   75500    282.49444 -0.0054581245            0    3367.4015   0.99640701 1.5448616e+08 
   75600    287.56228 -0.068751763            0    3427.7482    1.0080059 1.5543962e+08 
   75700    283.84027 -0.00084667447            0    3383.4488   0.98926809 1.5634293e+08 
   75800    280.30605 -0.0076333641            0    3341.3131   0.97223846 1.5709966e+08 
   75900    282.54054   -0.3361621            0    3367.6204   0.97635672 1.5764274e+08 
   76000    293.69155 -0.0030322097            0    3500.8765    1.0127044 1.5802513e+08 
   76100    289.68236  -0.13258783            0    3452.9563   0.99650145 1.5838513e+08 
   76200    282.85542 -0.0087897057            0    3371.7011   0.97130797 1.5868019e+08 
   76300    280.08904 -0.0079429945            0    3338.7261   0.96101275 1.5881168e+08 
   76400    283.34805 -0.0004697905            0    3377.5818   0.97253392 1.5875735e+08 
   76500     288.9192 -0.00041675307            0    3443.9914   0.99270959 1.5858883e+08 
   76600    284.09626 -0.0008084142            0    3386.5003   0.97734658 1.583927e+08 
   76700    277.37538 -0.00071026971            0    3306.3857    0.9559511 1.5810678e+08 
   76800    282.20581 -0.0023650353            0    3363.9641    0.9753416 1.5766193e+08 
   76900    286.56727 -0.015478581            0    3415.9407   0.99363852 1.5714872e+08 
   77000     284.2301 -0.019945286            0    3388.0766    0.9886622 1.5665096e+08 
   77100    277.39162 -0.0037751233            0    3306.5763   0.96799915 1.5614764e+08 
   77200    278.44341 -0.00062730278            0    3319.1171   0.97529889 1.5556702e+08 
   77300    290.40628 -0.00015597724            0     3461.718    1.0210903 1.5497454e+08 
   77400    285.90259 -0.00039495271            0    3408.0326    1.0081718 1.5452614e+08 
   77500    279.88979 -0.0015107854            0    3336.3574   0.98926235 1.5416775e+08 
   77600    281.22126  -0.28537677            0     3351.945   0.99600365 1.5381691e+08 
   77700    287.07939 -0.043960822            0    3422.0169    1.0190563 1.5349911e+08 
   77800    287.52442 -0.00028226799            0    3427.3653    1.0220375 1.5329442e+08 
   77900    277.05779 -7.4764746e-05            0    3302.6006   0.98553476 1.5318525e+08 
   78000    279.44393 -5.8117889e-05            0     3331.044   0.99492538 1.5304625e+08 
   78100     285.4284 -5.1903518e-05            0    3402.3806    1.0171738 1.529046e+08 
   78200    285.45071 -5.0551109e-05            0    3402.6464    1.0176683 1.5284225e+08 
   78300    280.88998 -3.2231365e-05            0    3348.2814    1.0013164 1.5285634e+08 
   78400    275.80578 -7.1070737e-05            0    3287.6763   0.98306756 1.5287572e+08 
   78500    277.63309 -7.845316e-05            0    3309.4584   0.98989261 1.5282756e+08 
   78600    286.71116 -7.1239112e-05            0    3417.6714    1.0227695 1.5275146e+08 
   78700    286.10759 -0.00015220499            0    3410.4765    1.0205117 1.5276712e+08 
   78800    279.99316 -0.00020929381            0    3337.5908   0.99805215 1.5286662e+08 
   78900    279.46336 -0.00014759252            0    3331.2756   0.99552113 1.5296529e+08 
   79000    288.01065 -0.00017334629            0    3433.1615     1.025347 1.5305806e+08 
   79100    288.75702 -0.00015417507            0    3442.0584    1.0266964 1.5325302e+08 
   79200    284.17839 -0.00011957391            0    3387.4799    1.0083463 1.5356768e+08 
   79300    281.17487 -0.00061633764            0    3351.6767   0.99534605 1.539291e+08 
   79400    281.91759 -0.000114979            0    3360.5307    0.9956925 1.5428207e+08 
   79500    288.03571 -6.0005393e-05            0    3433.4603    1.0149971 1.5463224e+08 
   79600    288.89776 -5.5213914e-05            0    3443.7362    1.0152598 1.5505491e+08 
   79700    277.98654 -3.5156194e-05            0    3313.6716   0.97387746 1.5553853e+08 
   79800     279.0411 -5.0147685e-05            0    3326.2422   0.97509614 1.5593345e+08 
   79900    284.47749 -0.00078259438            0    3391.0447   0.99222951 1.5622626e+08 
   80000    285.51094 -0.003581625            0    3403.3609   0.99419087 1.5648408e+08 
   80100    281.61197 -0.0005190717            0    3356.8872   0.97915809 1.567172e+08 
   80200    274.20118 -0.00082676491            0    3268.5484   0.95255856 1.568541e+08 
   80300    277.65161 -0.0014627739            0    3309.6777    0.9649846 1.5678257e+08 
   80400    286.37704 -0.002180804            0    3413.6864   0.99681837 1.5654525e+08 
   80500    285.01823 -0.0011760789            0    3397.4901   0.99387113 1.5626462e+08 
   80600    280.14897 -0.00047299259            0     3339.448   0.97899016 1.5592979e+08 
   80700    280.24349 -0.00016266805            0    3340.5749   0.98217508 1.5547663e+08 
   80800    288.94552 -7.3217238e-05            0    3444.3055    1.0163187 1.5491895e+08 
   80900    290.02591 -6.1594666e-05            0     3457.184    1.0236095 1.5439066e+08 
   81000    282.82598 -5.9648575e-05            0     3371.359    1.0011891 1.5392946e+08 
   81100    282.43955 -9.5123457e-05            0    3366.7526    1.0028783 1.5346022e+08 
   81200    283.55217 -0.00023576838            0    3380.0152     1.009976 1.5298201e+08 
   81300    284.14785 -0.00013124668            0    3387.1159    1.0151234 1.5252606e+08 
   81400    281.63587 -0.00014615936            0    3357.1725    1.0088753 1.5211393e+08 
   81500    278.61249 -0.00047934885            0    3321.1327    1.0006228 1.5172201e+08 
   81600    283.31517  -0.00380497            0    3377.1865     1.020178 1.513251e+08 
   81700    289.50813 -0.0024590847            0    3451.0095    1.0447008 1.5100331e+08 
   81800     284.1889 -0.0031676727            0    3387.6022     1.026547 1.508501e+08 
   81900     280.3463 -0.015793962            0    3341.7848    1.0129037 1.5081311e+08 
   82000    282.23037 -0.063616029            0    3364.1956    1.0194789 1.5084114e+08 
   82100      284.893  -0.59927189            0    3395.3992    1.0301991 1.5096352e+08 
   82200    284.72342 -0.059293574            0    3393.9178    1.0258696 1.5122625e+08 
   82300    278.24162 -0.013413972            0    3316.6989   0.99988924 1.5162943e+08 
   82400    276.96929 -0.0027774191            0     3301.543    0.9923324 1.5208694e+08 
   82500    285.15758 -0.002187639            0    3399.1501    1.0183973 1.5257571e+08 
   82600    285.27714   -0.0531367            0    3400.5244    1.0147091 1.531877e+08 
   82700    281.49802 -0.00052110991            0    3355.5288   0.99653906 1.5392153e+08 
   82800     279.8011 -0.00025566629            0    3335.3014   0.98558022 1.5469486e+08 
   82900    287.66862 -0.00028750018            0    3429.0843    1.0083513  1.55453e+08 
   83000     288.0403 -0.0001525797            0    3433.5149     1.004481 1.5625359e+08 
   83100    280.69598 -7.8293516e-05            0    3345.9689   0.97382471 1.5706302e+08 
   83200     279.5784 -6.4117137e-05            0     3332.647   0.96578918 1.5773927e+08 
   83300    282.84221 -8.0462106e-05            0    3371.5524   0.97401151 1.5823358e+08 
   83400     283.7721 -8.5804267e-05            0    3382.6369    0.9750857 1.5857891e+08 
   83500    283.21722 -0.00011043129            0    3376.0226   0.97188891 1.5878941e+08 
   83600    282.61981 -0.001062626            0    3368.9004   0.96941872 1.5885809e+08 
   83700    282.75367 -0.00088517956            0    3370.4962   0.97036015 1.5877916e+08 
   83800    284.24861 -0.00014194728            0     3388.317   0.97682763 1.5856193e+08 
   83900    284.42799 -0.00012783969            0    3390.4553   0.97946376 1.5823497e+08 
   84000    281.45594 -0.00045824264            0    3355.0274   0.97184632 1.578088e+08 
   84100    279.49948 -0.00048938261            0    3331.7058   0.96848843 1.5725517e+08 
   84200    284.67261 -0.00015953969            0    3393.3712   0.99070389 1.5657424e+08 
   84300    290.53789 -7.4820607e-05            0     3463.287    1.0156392 1.5587694e+08 
   84400    283.19081 -7.2737236e-05            0    3375.7078   0.99384905 1.5526632e+08 
   84500    280.69303 -0.00010208536            0    3345.9336   0.98883992 1.5467644e+08 
   84600    283.52248 -0.00013993475            0    3379.6614    1.0026473 1.5408409e+08 
   84700    285.95413 -0.00021854436            0    3408.6472    1.0147656 1.5354974e+08 
   84800    281.93376 -0.00037980163            0    3360.7231    1.0033286 1.5311661e+08 
   84900    276.30918 -0.00027417991            0    3293.6768   0.98580184 1.5272992e+08 
   85000    282.49582 -0.0021864802            0    3367.4212    1.0105128 1.5233086e+08 
   85100    286.69793  -0.20633805            0    3417.3074    1.0275581 1.5200665e+08 
   85200    284.24991 -0.001646655            0     3388.331    1.0202176 1.5181876e+08 
   85300    281.35835 -0.0015313212            0     3353.863    1.0104216 1.5173129e+08 
   85400    281.71636 -0.00039659083            0    3358.1317    1.0119212 1.5169937e+08 
   85500    289.83428 -0.00023339971            0    3454.8996    1.0408434 1.5173397e+08 
   85600    289.58029 -0.00087002578            0    3451.8713    1.0385656 1.5193341e+08 
   85700    281.22183 -0.0019372161            0    3352.2352    1.0062644 1.5228417e+08 
   85800    280.83796 -0.00038200135            0     3347.661    1.0023765 1.5266635e+08 
   85900    284.32533 -0.00012413595            0    3389.2316    1.0122401 1.5305605e+08 
   86000    286.72358 -0.00021507482            0    3417.8192    1.0178848 1.5349112e+08 
   86100     281.6378 -0.00059255209            0     3357.195   0.99660321 1.5398804e+08 
   86200    275.54209 -0.004748265            0    3284.5285   0.97208887 1.5445382e+08 
   86300     282.2343 -0.0086369903            0    3364.2974   0.99347538 1.5479891e+08 
   86400    285.65697 -0.0045010382            0    3405.1007     1.003587 1.5509816e+08 
   86500    283.44852 -0.0015414903            0    3378.7784   0.99389068 1.554009e+08 
   86600    280.11413 -0.0004706636            0    3339.0326   0.98050658 1.5566927e+08 
   86700     280.6742 -0.0010306242            0    3345.7082   0.98133477 1.558488e+08 
   86800    288.35528   -0.6963752            0    3436.5734    1.0090104 1.5595469e+08 
   86900    286.74803 -0.00068527138            0    3418.1102    1.0010712 1.5608233e+08 
   87000    279.63803 -6.9866589e-05            0    3333.3577   0.97546239 1.5620834e+08 
   87100    280.33463 -0.00018884476            0    3341.6613   0.97773287 1.5623381e+08 
   87200    284.07769 -0.00031947619            0    3386.2794   0.99126619 1.5615837e+08 
   87300    284.53414 -0.00056572196            0    3391.7202   0.99365569 1.5603312e+08 
   87400    283.36822 -0.0015821443            0    3377.8211   0.99061924 1.5586993e+08 
   87500    282.60852   -0.0582168            0    3368.7087   0.98928801 1.5565347e+08 
   87600    282.85487 -0.0015371478            0    3371.7018    0.9919852 1.5537331e+08 
   87700    284.86598 -0.00035717237            0     3395.676    1.0012009 1.5503787e+08 
   87800    285.31927 -0.00014202423            0    3401.0796    1.0051053 1.5468138e+08 
   87900    281.26813 -0.00022782621            0    3352.7889   0.99318456 1.5431532e+08 
   88000    279.45321 -0.0013067447            0    3331.1534   0.98949001 1.5389189e+08 
   88100    285.32149 -0.010488202            0    3401.0957    1.0135234 1.5339643e+08 
   88200    290.31497 -0.0077642035            0    3460.6219    1.0344312 1.5292675e+08 
   88300    281.70939 -0.0013056027            0    3358.0477    1.0061651 1.5256331e+08 
   88400    280.01974 -0.0017717282            0    3337.9062    1.0023875 1.522197e+08 
   88500    283.93783 -0.011814651            0    3384.6008    1.0187634 1.5186718e+08 
   88600    286.50994  -0.21339746            0    3415.0594    1.0298275 1.5157109e+08 
   88700    281.57486 -0.058530044            0    3356.3869    1.0135041 1.5137857e+08 
   88800    276.04301 -0.0090285671            0    3290.4952   0.99461329 1.5122983e+08 
   88900    282.40488 -0.0015600268            0    3366.3379    1.0186903 1.5105947e+08 
   89000    285.45157 -0.00050788408            0    3402.6563    1.0304361 1.5094883e+08 
[...]
  190700    285.21022 -0.0012952445            0    3399.7785    1.0054987 1.5456161e+08 
  190800    287.66511 -0.001466946            0    3429.0413    1.0111356 1.5502288e+08 
  190900    280.10783 -0.0013257055            0    3338.9566   0.98150394 1.5550746e+08 
  191000     275.7969 -0.0010441897            0    3287.5696   0.96398982 1.5589604e+08 
  191100    281.02815 -0.00064899748            0    3349.9277    0.9808655 1.5612004e+08 
  191200    283.85127 -0.00034031616            0    3383.5805    0.9899273 1.5624494e+08 
  191300    284.47628 -0.0001951906            0    3391.0308   0.99164033 1.5631849e+08 
  191400    281.96137 -0.00010449062            0    3361.0526   0.98268416 1.5634867e+08 
  191500    277.33473 -6.6342267e-05            0    3305.9019   0.96689978 1.5629365e+08 
  191600    281.17056 -4.7207114e-05            0     3351.626   0.98152616 1.5609411e+08 
  191700    288.54611 -3.7407097e-05            0    3439.5445    1.0090976 1.5581189e+08 
  191800    285.25157 -1.8063082e-05            0    3400.2727   0.99924164 1.5555217e+08 
  191900     281.0594 -1.6462274e-05            0    3350.3009   0.98626793 1.5528223e+08 
  192000    281.98224 -5.294232e-05            0    3361.3014   0.99164521 1.5494729e+08 
  192100    283.96889 -0.00018167729            0    3384.9827    1.0011144  1.54563e+08 
  192200    284.13364 -0.0043312969            0    3386.9423    1.0042602 1.5416767e+08 
  192300    283.09696 -0.00026397905            0    3374.5889    1.0031471 1.5377617e+08 
  192400     283.0515 -0.00014284374            0    3374.0471    1.0055353 1.5338632e+08 
  192500    283.42973 -7.4147479e-05            0    3378.5558    1.0093732 1.530073e+08 
  192600     283.1983 -4.5229935e-05            0    3375.7972    1.0108755 1.5265517e+08 
  192700    281.96836 -6.2926503e-05            0    3361.1359    1.0085922 1.5233626e+08 
  192800    280.80451 -0.0003426438            0    3347.2623    1.0063774 1.5204131e+08 
  192900    283.51613  -0.14355928            0    3379.4423    1.0178175 1.5176556e+08 
  193000    287.75035 -0.019818419            0     3430.039    1.0345411 1.5155811e+08 
  193100    283.88274 -0.00035452388            0    3383.9555    1.0211505 1.514843e+08 
  193200    277.36162 -0.0058507993            0    3306.2166   0.99759286 1.5149883e+08 
  193300    281.00516 -0.0045261859            0    3349.6499    1.0105492 1.5152128e+08 
  193400    284.62539 -0.00023928622            0    3392.8082    1.0230685 1.5159588e+08 
  193500    283.80341 -0.00022112065            0    3383.0101    1.0188578 1.5178279e+08 
  193600    282.02138 -0.00020266631            0    3361.7678    1.0104599 1.5208327e+08 
  193700    281.96075 -0.0004855913            0    3361.0448    1.0076307 1.5247746e+08 
  193800    287.63977 -0.0029794254            0    3428.7377    1.0245963 1.5297258e+08 
  193900    287.72675 -0.000595235            0    3429.7769    1.0204457 1.5364154e+08 
  194000    279.18451 -0.00014379354            0    3327.9516   0.98482749 1.5447196e+08 
  194100    278.52477 -0.00011235237            0    3320.0874   0.97716526 1.5531533e+08 
  194200    282.84573 -0.00023140186            0    3371.5943   0.98731659 1.5610315e+08 
  194300    283.44615 -0.00082015511            0    3378.7509   0.98472255 1.5684653e+08 
  194400    282.95392 -0.0012944375            0    3372.8828   0.97879713 1.5752195e+08 
  194500    283.23597 -0.00062007836            0    3376.2456   0.97623719 1.5809254e+08 
  194600    286.42995 -0.00027044075            0     3414.319   0.98442535 1.5854556e+08 
  194700    286.90429 -0.00021831232            0    3419.9733   0.98377901 1.5891247e+08 
  194800     279.8818 -0.00018359312            0    3336.2634   0.95806794 1.5918305e+08 
  194900    278.46459 -0.00014682991            0      3319.37   0.95277796 1.5925636e+08 
  195000    286.15334 -8.3239449e-05            0    3411.0219   0.97996714 1.5911306e+08 
  195100    287.61052 -0.00013272326            0    3428.3919   0.98652987 1.5885944e+08 
  195200     284.3889 -4.9527218e-05            0    3389.9894   0.97749147 1.5853246e+08 
  195300    281.77789 -4.8929864e-05            0    3358.8655   0.97121196 1.5809256e+08 
  195400    281.78867 -8.7001674e-05            0     3358.994   0.97482957 1.575119e+08 
  195500    286.20723 -0.0001859094            0    3411.6642    0.9945129 1.5681538e+08 
  195600       290.04 -0.00033121666            0    3457.3517    1.0124265 1.5610357e+08 
  195700    282.11038 -0.00012815113            0    3362.8288   0.98887939 1.5545126e+08 
  195800    280.06639 -0.0001266054            0    3338.4638   0.98591438 1.5478907e+08 
  195900     283.9635 -0.00065511182            0    3384.9179    1.0040402 1.5410961e+08 
  196000    287.42645 -0.00096439835            0    3426.1969    1.0203409 1.5349691e+08 
  196100    281.15363 -0.00011451446            0    3351.4241    1.0012445 1.530108e+08 
  196200    277.02613 -3.1156435e-05            0    3302.2233   0.98935683 1.5257603e+08 
  196300    283.53994 -0.00011536821            0    3379.8695    1.0154716 1.5214755e+08 
  196400    286.74372 -0.011879601            0    3418.0476    1.0291679 1.5181746e+08 
  196500    283.70723  -0.73456449            0    3381.1293    1.0190778 1.5163139e+08 
  196600    281.31122 -0.002074449            0    3353.3006    1.0115042 1.5154344e+08 
  196700    282.19571 -0.00016956054            0    3363.8459    1.0148674 1.5151638e+08 
  196800    283.27732 -0.00015084713            0     3376.739    1.0184879 1.5155646e+08 
  196900    283.70086 -0.00013561303            0    3381.7877    1.0192083 1.5167578e+08 
  197000    282.86274 -0.00040518061            0    3371.7969    1.0148648 1.5187489e+08 
  197100    280.53323 -0.0088631176            0      3344.02    1.0047934 1.5213273e+08 
  197200    281.84466 -0.00037815018            0    3359.6611    1.0076415 1.5241305e+08 
  197300    286.80781 -7.4784869e-05            0    3418.8234    1.0232535 1.5273068e+08 
  197400    286.01081 -2.7127984e-05            0     3409.323    1.0176661 1.5314249e+08 
  197500     277.3697 -4.9385349e-05            0    3306.3188   0.98386434 1.5361808e+08 
  197600    277.88251 -0.0072576849            0    3312.4244   0.98303354 1.5403116e+08 
  197700     283.5826 -0.0023346786            0    3380.3758     1.000989 1.5437179e+08 
  197800    283.76317 -7.8278327e-05            0    3382.5305   0.99946094 1.5470656e+08 
  197900    282.62716 -0.00013746155            0     3368.989   0.99334142 1.5503647e+08 
  198000    282.03693 -0.00038915491            0     3361.953   0.98935112 1.5533665e+08 
  198100    284.60191 -0.00075868562            0    3392.5278   0.99669958 1.5559363e+08 
  198200     287.6435 -0.0012224452            0     3428.784     1.005759 1.5583992e+08 
  198300    282.68338 -0.00087644237            0    3369.6583   0.98672647 1.5610676e+08 
  198400    277.16837 -0.0010828333            0    3303.9178   0.96617986 1.5631614e+08 
  198500     282.3664 -0.00099470748            0    3365.8797   0.98385816 1.563863e+08 
  198600    286.45567 -0.00050344739            0    3414.6254   0.99814959 1.5637962e+08 
  198700    284.28673 -0.0011422766            0    3388.7704   0.99074045 1.5635609e+08 
  198800    281.45975 -0.0034826899            0    3355.0698   0.98132376 1.562864e+08 
  198900      281.451 -0.016219414            0    3354.9527   0.98229219 1.561257e+08 
  199000    288.12094  -0.17662619            0    3434.2997     1.007041 1.5587683e+08 
  199100    289.94585  -0.82696545            0    3455.4027    1.0146553 1.5563439e+08 
  199200    281.06959 -0.020619423            0    3350.4018   0.98538351 1.5542438e+08 
  199300    280.83701 -0.0024854948            0    3347.6476   0.98639193 1.5513951e+08 
  199400    284.57916 -0.00075718237            0    3392.2566    1.0019608 1.5476425e+08 
  199500     286.5704 -0.00058219706            0    3415.9929    1.0116382 1.5435634e+08 
  199600    279.30372 -0.00054405057            0    3329.3723   0.98860201 1.5394783e+08 
  199700    277.11077 -0.0032782798            0    3303.2289   0.98399793 1.5345339e+08 
  199800    284.44432 -0.039708163            0    3390.6104    1.0140138 1.5284697e+08 
  199900    286.42079 -0.0011910285            0    3414.2089    1.0251527 1.5224185e+08 
  200000    283.66012 -0.0002207737            0     3381.302    1.0188972 1.5170028e+08 
Loop time of 1203.21 on 1 procs for 200000 steps with 4000 atoms

Performance: 14.362 ns/day, 1.671 hours/ns, 166.222 timesteps/s
99.9% CPU use with 1 MPI tasks x no OpenMP threads

MPI task timing breakdown:
Section |  min time  |  avg time  |  max time  |%varavg| %total
---------------------------------------------------------------
Pair    | 26.329     | 26.329     | 26.329     |  -nan |  2.19
Neigh   | 1099       | 1099       | 1099       |   0.0 | 91.34
Comm    | 21.178     | 21.178     | 21.178     |   0.0 |  1.76
Output  | 0.11483    | 0.11483    | 0.11483    |   0.0 |  0.01
Modify  | 44.693     | 44.693     | 44.693     |   0.0 |  3.71
Other   |            | 11.85      |            |       |  0.98

Nlocal:    4000 ave 4000 max 4000 min
Histogram: 1 0 0 0 0 0 0 0 0 0
Nghost:    248 ave 248 max 248 min
Histogram: 1 0 0 0 0 0 0 0 0 0
Neighs:    44 ave 44 max 44 min
Histogram: 1 0 0 0 0 0 0 0 0 0

Total # of neighbors = 44
Ave neighs/atom = 0.011
Neighbor list builds = 200000
Dangerous builds not checked
WARNING: One or more atoms are time integrated more than once (../modify.cpp:266)
Setting up Verlet run ...
  Unit style  : real
  Current step: 0
  Time step   : 1
Memory usage per processor = 33.138 Mbytes
Step Temp E_pair E_mol TotEng Press Volume 
       0    283.66012 -0.0002207737            0     3381.302    1.0188972 1.5170028e+08 
     100    282.24038 -0.00074896113            0    3364.3778    1.0168262 1.5124836e+08 
     200    285.97241 -0.0019326926            0    3408.8634      1.03243  1.50932e+08 
     300    287.12964 -0.000103366            0    3422.6597    1.0370101 1.5087371e+08 
     400    282.17887 -2.6134267e-05            0    3363.6453    1.0174755 1.5111901e+08 
     500    279.55431 -0.00025842807            0    3332.3597    1.0052997 1.5152667e+08 
     600    287.21397 -0.0008179772            0    3423.6642    1.0294792 1.5202192e+08 
     700    283.23002 -0.0026010585            0    3376.1727    1.0103502 1.5275129e+08 
     800    276.32965 -0.00041127139            0    3293.9207   0.98048328 1.5356976e+08 
     900    290.67389 -0.00012301165            0     3464.908    1.0265962 1.5428542e+08 
    1000    280.69718 -6.827249e-05            0    3345.9832    0.9858862 1.5514215e+08 
    1100    277.20617 -4.6045095e-05            0    3304.3693   0.96911569 1.5586399e+08 
    1200    287.11634 -9.6025575e-05            0    3422.5011    1.0010008 1.5629389e+08 
    1300    282.21591 -6.8235122e-05            0    3364.0868   0.98177698 1.5663441e+08 
    1400    279.98941 -0.00014414775            0    3337.5463   0.97327813 1.5675563e+08 
    1500    291.46902 -0.0023954125            0    3474.3839    1.0141535 1.5660526e+08 
    1600    282.50045 -0.00010554095            0    3367.4786   0.98392367 1.5645025e+08 
    1700    275.53665 -4.7862401e-05            0    3284.4683   0.96200498 1.5607042e+08 
    1800    287.35321 -5.226215e-05            0    3425.3247    1.0082613 1.5529643e+08 
    1900    283.58599 -0.00029106103            0    3380.4183    1.0005171 1.5444672e+08 
    2000    278.99953 -0.00021305931            0    3325.7466   0.99040483 1.5350029e+08 
    2100    290.31664 -7.6609188e-05            0    3460.6496    1.0377725 1.5243626e+08 
    2200     285.0209 -0.00023250076            0    3397.5228    1.0243484 1.5161685e+08 
    2300    274.76233 -0.00065699589            0    3275.2376   0.99163292 1.5098179e+08 
    2400    287.95531 -0.010242338            0    3432.4917    1.0437207 1.5033339e+08 
    2500    288.44334 -0.00022834657            0    3438.3192    1.0476247 1.5002832e+08 
    2600    276.51348 -9.2032299e-05            0    3296.1123    1.0039829 1.5007506e+08 
    2700    285.19287 -0.00029076016            0    3399.5727    1.0347358 1.5018538e+08 
    2800    286.99671 -0.018131199            0    3421.0571    1.0388536 1.5053388e+08 
    2900    271.76757 -0.00018858469            0    3239.5398   0.98000247 1.5110852e+08 
    3000    281.75854 -7.5158368e-05            0    3358.6348     1.013092 1.5154678e+08 
    3100    284.99536 -0.00011805666            0    3397.2185      1.02161 1.5200966e+08 
    3200    281.69677 -0.0001238419            0    3357.8985    1.0058923 1.5259803e+08 
    3300    282.65158 -4.4563866e-05            0    3369.2801    1.0052968 1.5320597e+08 
    3400    289.44855 -2.5451657e-05            0    3450.3018    1.0252118 1.538425e+08 
    3500     283.6163 -0.00011018649            0    3380.7797   0.99944829 1.5462844e+08 
    3600    284.46322 -0.00041515885            0    3390.8749   0.99738481  1.55411e+08 
    3700    285.09709 -0.0079450256            0    3398.4233   0.99488615 1.5614746e+08 
    3800    280.89494 -0.034734365            0    3348.3058   0.97608311 1.5680585e+08 
    3900    285.50401 -0.0002443453            0    3403.2816   0.98926645 1.5725968e+08 
    4000    288.42452 -6.2252929e-05            0    3438.0951   0.99720781 1.576032e+08 
    4100    289.71046 -9.2866003e-05            0    3453.4238   0.99961282  1.57925e+08 
    4200    281.23963 -0.00020466802            0    3352.4491   0.96865166 1.5820761e+08 
    4300    280.52517 -9.7623441e-05            0    3343.9327    0.9661248 1.5821845e+08 
    4400    286.06869 -0.0002954809            0    3410.0127   0.98713407 1.5791109e+08 
    4500    282.93931 -0.00039322766            0    3372.7095   0.97933653 1.5742719e+08 
    4600    278.63729 -0.00024509096            0    3321.4285   0.96890959 1.5670196e+08 
    4700    291.18134 -0.00040572936            0    3470.9567     1.019126 1.5568761e+08 
    4800    281.42387 -0.00069821778            0    3354.6448   0.99135612 1.5468547e+08 
    4900    281.92837 -0.00077642864            0    3360.6585    1.0001728 1.5359674e+08 
    5000    287.52743 -0.00054001737            0     3427.401    1.0274917 1.5248225e+08 
    5100    280.48845 -0.00028772592            0    3343.4948    1.0085492 1.5154317e+08 
    5200    281.22157 -0.00011872976            0     3352.234    1.0169122 1.5068975e+08 
    5300    288.46736 -0.00062086509            0    3438.6052    1.0479303 1.4999701e+08 
    5400    280.01981 -0.0011289221            0    3337.9076    1.0194963 1.4966534e+08 
    5500    281.40997 -0.00032887217            0    3354.4796     1.025406 1.4954162e+08 
    5600    289.07859 -0.00012726321            0    3445.8917    1.0524274 1.496726e+08 
    5700    280.21515  -0.15207302            0    3340.0852    1.0162632 1.5022669e+08 
    5800      282.996 -0.00031170423            0    3373.3855    1.0211968 1.510043e+08 
    5900    287.91443 -0.0011111243            0    3432.0136    1.0318803 1.5203804e+08 
    6000    277.70432 -0.0012868711            0    3310.3062   0.98675084 1.5335332e+08 
    6100    284.31391 -0.000385765            0    3389.0952    1.0018567 1.5463611e+08 
    6200    284.27173 -0.00068488612            0    3388.5921   0.99352545 1.5590964e+08 
    6300    279.76236 -0.00014477025            0    3334.8397   0.97044647 1.5708554e+08 
    6400    283.08686 -0.00025668905            0    3374.4685   0.97650262 1.5796641e+08 
    6500    286.35448  -0.16688365            0    3413.2528   0.98377326 1.5858645e+08 
    6600     280.6422  -0.01891547            0    3345.3089   0.96181441 1.5899114e+08 
    6700    280.95414 -0.00070806108            0    3349.0455   0.96268054 1.5902724e+08 
    6800    286.73175 -0.00064840318            0    3417.9161   0.98442883  1.58712e+08 
    6900    282.74083 -0.00070655508            0    3370.3433   0.97377624 1.5821499e+08 
    7000    276.31573 -3.2665284e-05            0    3293.7552   0.95625295 1.5745316e+08 
    7100    292.75849 -0.00016155653            0    3489.7569    1.0202501 1.5635845e+08 
    7200    285.97009 -0.0089059813            0    3408.8287     1.002872 1.5537827e+08 
    7300    279.04542 -0.00013077666            0    3326.2937    0.9844726 1.5445066e+08 
    7400    286.08255 -7.4405502e-05            0    3410.1781    1.0159358 1.5344179e+08 
    7500    283.66322 -0.00014572205            0     3381.339    1.0130201 1.5258206e+08 
    7600    274.20764 -0.00019965534            0     3268.626   0.98408041 1.5183344e+08 
    7700    288.97688 -0.031919713            0    3444.6475    1.0422643 1.5107472e+08 
    7800    284.65086 -0.0063666647            0    3393.1057    1.0295938 1.5064776e+08 
    7900    280.03281 -0.00093697448            0    3338.0628    1.0139589 1.5048969e+08 
    8000    284.74777 -0.00033173082            0     3394.267    1.0311576 1.5047131e+08 
    8100    286.32552 -0.00014568065            0    3413.0743    1.0353068 1.506987e+08 
    8200     275.1484 -0.00074543712            0    3279.8395   0.99186751 1.5115816e+08 
    8300    284.18495 -0.00032548898            0     3387.558    1.0216149 1.5157664e+08 
    8400    289.91329 -0.00018070772            0    3455.8414    1.0382863 1.5214913e+08 
    8500    278.34753 -7.5080101e-05            0    3317.9747   0.99144271 1.5298128e+08 
    8600    282.35742 -0.00019502375            0    3365.7735     1.000626 1.5376089e+08 
    8700    285.52444 -0.0020526525            0    3403.5233    1.0068801 1.545195e+08 
    8800    281.72625 -0.078929469            0    3358.1711   0.98839253 1.5530535e+08 
    8900    280.72435 -0.0020189478            0     3346.305   0.98067369 1.5598159e+08 
    9000    287.14922 -0.00029198257            0    3422.8929   0.99981648 1.5649692e+08 
    9100    284.27085 -4.8181745e-05            0    3388.5822    0.9867726 1.5697619e+08 
    9200     285.7912 -0.00010831364            0    3406.7052   0.98971059 1.5734725e+08 
    9300      284.297 -9.8679996e-05            0    3388.8939   0.98295411 1.5760049e+08 
    9400    281.94819 -0.0036868568            0    3360.8918   0.97425107 1.5769414e+08 
    9500    285.63693 -0.00057478246            0    3404.8657   0.98787255 1.5755485e+08 
    9600    283.10941 -0.00039734213            0    3374.7372   0.98094456 1.5726361e+08 
    9700    286.62207  -0.01376738            0    3416.5956   0.99612063 1.5678735e+08 
    9800    285.09495 -0.019300973            0    3398.3864   0.99446718 1.5621051e+08 
    9900    280.43586 -0.071541068            0    3342.7967   0.98244364 1.5553102e+08 
   10000    284.45561 -0.00085089498            0    3390.7838    1.0021889 1.5466183e+08 
Loop time of 71.6344 on 1 procs for 10000 steps with 4000 atoms

Performance: 12.061 ns/day, 1.990 hours/ns, 139.598 timesteps/s
100.0% CPU use with 1 MPI tasks x no OpenMP threads

MPI task timing breakdown:
Section |  min time  |  avg time  |  max time  |%varavg| %total
---------------------------------------------------------------
Pair    | 0.46163    | 0.46163    | 0.46163    |   0.0 |  0.64
Neigh   | 64.335     | 64.335     | 64.335     |   0.0 | 89.81
Comm    | 0.97517    | 0.97517    | 0.97517    |   0.0 |  1.36
Output  | 0.78607    | 0.78607    | 0.78607    |   0.0 |  1.10
Modify  | 4.4303     | 4.4303     | 4.4303     |   0.0 |  6.18
Other   |            | 0.6462     |            |       |  0.90

Nlocal:    4000 ave 4000 max 4000 min
Histogram: 1 0 0 0 0 0 0 0 0 0
Nghost:    258 ave 258 max 258 min
Histogram: 1 0 0 0 0 0 0 0 0 0
Neighs:    45 ave 45 max 45 min
Histogram: 1 0 0 0 0 0 0 0 0 0

Total # of neighbors = 45
Ave neighs/atom = 0.01125
Neighbor list builds = 10000
Dangerous builds not checked
Total wall time: 0:21:14
