LAMMPS (16 Feb 2016)
Lattice spacing in x,y,z = 3 3 3
Created orthogonal box = (0 0 0) to (30 30 30)
  2 by 2 by 3 MPI processor grid
Created 4000 atoms
Neighbor list info ...
  1 neighbor list requests
  update every 1 steps, delay 0 steps, check no
  max neighbors/atom: 2000, page size: 100000
  master list distance cutoff = 5.73
  ghost atom cutoff = 5.73
  binsize = 2.865, bins = 11 11 11
Setting up Verlet run ...
  Unit style  : real
  Current step: 0
  Time step   : 1
Memory usage per processor = 2.05206 Mbytes
Step Temp E_pair E_mol TotEng Press Volume 
       0       283.13   -0.7732371            0    3374.2098    5710.0785        27000 
     100     281.1224   -3.6265691            0    3347.4253    5573.1429    27397.271 
     200    286.98086   -72.076272            0      3348.81    5388.8158     28259.53 
     300    287.89477   -83.919836            0    3347.8605    5297.9287    29057.537 
     400    279.26901   -86.181942            0    3242.7772    4920.7994    29893.216 
     500    273.79963   -88.760029            0    3175.0026    4797.7133    30663.544 
     600    280.48967   -80.159523            0    3263.3501    4749.8617    31392.556 
     700    282.15856   -79.699057            0    3283.7042    4681.8782    32126.401 
     800     284.8596   -92.831775            0    3302.7685    4618.8262    32864.787 
     900    284.61602   -101.70058            0    3290.9962    4466.9217    33610.417 
    1000    280.59766   -80.056273            0    3264.7406    4346.3971    34360.863 
    1100     286.9416   -98.944362            0    3321.4739    4306.1317    35117.021 
    1200    284.03833   -84.533731            0    3301.2768    4151.0113    35889.749 
    1300    280.33569   -89.285569            0    3252.3886    4042.4147    36666.925 
    1400    283.13862   -89.547344            0    3285.5384    3971.0738    37449.126 
    1500    287.28879   -91.175324            0    3333.3815    3977.1099    38248.727 
    1600    281.91404   -90.027022            0    3270.4615    3801.9882    39063.032 
    1700    280.16789   -89.804454            0    3249.8695     3696.165    39880.208 
    1800    284.20758   -81.348578            0    3306.4795    3693.5827      40708.3 
    1900    283.80368   -94.320338            0    3288.6932     3660.799    41556.126 
    2000    280.35368   -84.227657            0    3257.6609    3511.5715    42414.915 
    2100    282.28226   -77.427695            0    3287.4501    3500.0216    43283.445 
    2200    285.00398    -93.91792            0    3303.4034    3443.6176    44170.542 
    2300    280.73426    -82.52402            0    3263.9012    3337.3319    45072.849 
    2400    281.48374    -86.16156            0    3269.1976    3274.4476    45981.282 
    2500    283.17572   -81.976421            0    3293.5516    3202.0518    46908.237 
    2600    282.08373   -81.677762            0    3280.8335     3150.593    47853.287 
    2700    280.20058   -73.156358            0    3266.9072    3049.3507     48810.97 
    2800    281.08542   -84.169221            0    3266.4419    2977.6141    49780.656 
    2900     281.2967   -85.827933            0    3267.3017    2973.3653    50768.788 
    3000    281.54601   -76.060317            0    3280.0411    2933.7445    51773.906 
    3100    282.79132   -84.110958            0    3286.8349    2836.9907    52798.028 
    3200    280.92483   -75.124647            0    3273.5722     2769.368    53839.712 
    3300    280.35001    -73.01711            0    3268.8277    2696.6422    54897.019 
    3400     281.0473   -75.131357            0    3275.0253    2659.3528    55971.289 
    3500    281.76302   -78.820572            0    3279.8677    2643.6064    57064.438 
    3600    281.35645   -72.978815            0    3280.8631    2592.7761    58177.152 
    3700     282.2426   -75.478655            0    3288.9264    2565.8603      59307.4 
    3800    281.88717   -76.297786            0    3283.8704    2504.2722     60459.29 
    3900    281.20278    -79.68785            0    3272.3222    2429.3484    61629.961 
    4000    281.21455   -77.283766            0    3274.8666    2393.6294    62817.673 
    4100    280.94429   -67.213612            0    3281.7152    2335.7682    64026.177 
    4200    281.88898   -74.958783            0     3285.231    2317.0907    65256.112 
    4300     281.2071   -65.513491            0    3286.5481    2260.1915    66509.365 
    4400    282.09241   -66.821329            0    3295.7934    2243.2125    67783.353 
    4500    282.21181   -71.010083            0    3293.0279    2195.9168    69080.816 
    4600    280.69875   -64.796302            0    3281.2056    2147.6362    70398.668 
    4700    280.97403   -68.099768            0    3281.1836    2097.3531    71734.917 
    4800    281.31336   -63.197196            0    3290.1311    2067.3435    73096.292 
    4900    282.00424   -64.148376            0    3297.4153     2019.809    74483.561 
    5000     281.4106   -58.247733            0    3296.2396    1992.4345    75895.456 
    5100    281.84104   -67.350752            0    3292.2676    1959.7009    77332.734 
    5200    280.75368   -55.714492            0    3290.9422    1920.5422    78793.002 
    5300    282.02665   -61.693872            0    3300.1369    1875.2052    80275.947 
    5400    281.88666   -58.147702            0    3302.0144    1844.9704    81786.375 
    5500    281.73482   -57.151187            0    3301.2009    1815.5724    83323.245 
    5600    281.49955   -56.671213            0    3298.8764    1765.6511    84886.703 
    5700    280.92838   -51.118631            0    3297.6205     1730.345    86474.616 
    5800    281.69211   -57.901999            0     3299.941    1715.3311    88089.586 
    5900    281.40855   -51.398132            0    3303.0648    1671.4001    89733.645 
    6000    281.75101   -54.200801            0    3304.3443    1670.5332    91407.856 
    6100    281.40105   -52.690079            0    3301.6834    1633.7912    93109.857 
    6200    280.84852   -52.899598            0    3294.8876    1571.4218    94840.184 
    6300    280.97347   -52.197751            0    3297.0789    1553.6146    96597.455 
    6400     281.9347   -50.508768            0     3310.226    1531.3277    98387.324 
    6500    281.81499   -50.498222            0    3308.8095     1503.056    100210.12 
    6600    281.50138   -52.738565            0     3302.831    1473.8288    102063.17 
    6700    281.12268   -44.529481            0    3306.5258    1450.0524    103947.15 
    6800    281.69655   -46.766967            0     3311.129    1435.5726    105863.92 
    6900     280.9993   -45.344709            0    3304.2399    1415.3666    107818.59 
    7000    281.72997   -47.537628            0    3310.7566    1380.5054       109805 
    7100    282.02366   -42.041774            0    3319.7534    1343.7793    111827.64 
    7200    281.78512   -38.098214            0    3320.8535     1328.417    113885.75 
    7300    282.03023   -52.306837            0    3309.5667    1306.8007    115978.76 
    7400    280.03864   -37.849744            0    3300.2835    1274.4471    118104.29 
    7500    282.42917   -45.205536            0    3321.4235    1270.5099    120262.73 
    7600    282.84636   -43.472903            0    3328.1291    1246.4977    122468.98 
    7700    281.73416   -41.520333            0    3316.8239    1226.1225    124713.29 
    7800    281.34547   -43.846348            0    3309.8647    1196.8362    126992.14 
    7900    280.95398   -44.034277            0    3305.0101    1166.2195    129305.42 
    8000     281.1375   -41.796402            0    3309.4355    1149.2082    131654.04 
    8100    282.58643   -41.461434            0    3327.0421    1127.3908    134045.63 
    8200    282.49906   -37.843582            0    3329.6184    1118.7817    136490.47 
    8300    281.82974   -37.702042            0    3321.7816    1092.9448    138976.18 
    8400    281.35699   -41.600414            0    3312.2479    1065.3085    141499.39 
    8500    280.89178   -41.227758            0    3307.0751    1049.1035    144058.99 
    8600    281.97458   -38.873968            0    3322.3362    1032.4338     146663.1 
    8700    282.31596   -32.126293            0    3333.1532    1017.9189    149319.16 
    8800    281.90335   -34.612781            0    3325.7483    998.90944    152025.06 
    8900    280.89757   -33.089845            0     3315.282    975.08511    154772.78 
    9000     280.7727   -34.227981            0    3312.6554    958.36274    157561.08 
    9100    282.02272   -42.019885            0    3319.7641    946.72321     160397.5 
    9200    282.36089   -40.225356            0    3325.5896    931.97526    163287.69 
    9300    281.91983   -37.784197            0    3322.7733    916.66786    166230.72 
    9400    280.88301   -31.087432            0    3317.1109    900.44611    169219.65 
    9500    281.08899   -36.284625            0     3314.369    883.09715    172255.94 
    9600    280.72536   -27.156596            0    3319.1625    860.98829    175345.67 
    9700    282.19985   -35.250063            0    3328.6454    867.11111    178489.08 
    9800    281.41683   -31.015098            0    3323.5466     844.3577    181694.84 
    9900    281.32864   -34.202972            0    3319.3074    819.66457     184949.1 
   10000    281.27715   -31.501023            0    3321.3955    812.00965    188252.02 
   10100    281.42912   -32.848502            0    3321.8596    791.65472    191615.21 
   10200    281.21334   -31.450077            0    3320.6859    780.87537    195038.24 
   10300    281.78737    -33.00291            0    3325.9757    774.76231    198515.27 
   10400    281.93348   -32.041377            0    3328.6788    756.09803    202055.26 
   10500    281.56443   -32.130841            0    3324.1901       737.39    205656.71 
   10600    281.06598   -28.030438            0     3322.349    723.54721    209315.57 
   10700    281.74226   -32.106065            0    3326.3347    713.89749    213036.31 
   10800     281.8056   -32.032207            0    3327.1636    707.06379    216822.61 
   10900     281.5678   -29.243954            0    3327.1173    689.83326    220672.82 
   11000    281.32401   -30.547443            0    3322.9077    675.29018    224586.06 
   11100    281.28527   -31.295653            0    3321.6977    667.14878    228562.22 
   11200    281.86423   -30.206565            0    3329.6881    660.01268    232605.46 
   11300    282.25281   -30.369048            0    3334.1576    640.64238    236726.82 
   11400    281.66738   -29.876428            0    3327.6718    633.47473    240916.98 
   11500    280.90959   -28.996723            0    3319.5184    619.94405     245173.4 
   11600    281.01593   -30.575893            0    3319.2069    608.04746    249493.75 
   11700    281.67577   -28.440456            0    3329.2078    600.25593    253890.96 
   11800    282.31017   -29.580835            0    3335.6296    590.05526    258371.09 
   11900    281.79625   -29.585427            0     3329.499    585.76627     262929.6 
   12000    281.20515   -25.207834            0    3326.8305    567.99075    267558.14 
   12100      281.463    -26.60894            0    3328.5031     557.0129    272261.82 
   12200    281.54693   -25.231939            0    3330.8805    550.41078    277048.37 
   12300    281.55179   -24.842015            0    3331.3284    538.22136    281918.13 
   12400    281.66581   -26.359809            0    3331.1697    532.07321    286869.91 
   12500    281.36747   -24.733676            0    3329.2395    525.38031    291903.45 
   12600     281.0922   -21.326368            0    3329.3655    513.58097    297020.65 
   12700     281.6849   -26.883099            0    3330.8739    505.45278    302222.43 
   12800    281.51874   -22.963813            0    3332.8126    493.63438    307515.24 
   12900    282.09295   -24.494751            0    3338.1263    485.74838    312898.24 
   13000    281.75322   -21.895457            0     3336.676    480.12535    318376.78 
   13100    281.15039   -21.659147            0    3329.7264    469.30547    323941.28 
   13200    281.01466    -21.88162            0     3327.886    463.77866    329591.19 
   13300    282.08078   -22.224175            0    3340.2519     454.7145    335340.82 
   13400    282.69032   -21.293467            0    3348.4484    446.37882    341204.86 
   13500    282.00586   -21.647607            0    3339.9354    442.26405    347170.52 
   13600    280.57365   -16.724784            0    3327.7859     431.2714    353223.38 
   13700     281.2785   -20.623127            0    3332.2895     422.7511    359358.44 
   13800    281.97109   -14.444684            0    3346.7238    418.47163    365611.12 
   13900    282.74015   -20.130288            0    3350.2056    413.84261    371990.79 
   14000    281.44642   -16.935399            0     3337.979    403.54784    378478.41 
   14100    281.02859   -17.452683            0     3332.481    394.79523    385051.36 
   14200    281.31444   -16.311313            0    3337.0298    392.87013    391729.75 
   14300    281.80444   -16.364278            0    3342.8178    385.43043    398531.74 
   14400    282.04342   -17.638743            0    3344.3919    377.65867       405453 
   14500    281.85916   -17.960537            0    3341.8737    370.37773    412494.02 
   14600    281.35421   -16.249104            0    3337.5661    362.71513    419645.78 
   14700    280.92032   -14.087643            0    3334.5555    359.67505     426904.7 
   14800    281.61862   -18.290905            0    3338.6761    352.83814    434288.42 
   14900    281.90598   -13.481209            0    3346.9111    345.83345    441805.65 
   15000    281.93477   -13.536159            0    3347.1994    339.83306    449459.12 
   15100    281.25879   -14.164202            0    3338.5135    334.50153    457236.12 
   15200    281.13927   -16.163408            0    3335.0896       328.58    465130.15 
   15300    281.89198   -18.605939            0    3341.6196    322.71075    473149.11 
   15400    282.02469   -15.368123            0    3346.4393    318.25242    481313.34 
   15500    281.82193   -15.270364            0    3344.1201    314.64957    489620.34 
   15600    281.37355   -14.416266            0    3339.6295    305.02828    498063.86 
   15700    281.14199    -13.85989            0    3337.4256    300.98552    506638.22 
   15800    281.65181   -15.541406            0    3341.8212    296.38363    515351.65 
   15900    281.75267   -14.993305            0    3343.5716    291.66666    524220.87 
   16000    281.33347   -12.446676            0    3341.1213     285.5786    533236.13 
   16100    281.59088   -13.343797            0    3343.2925    282.44384    542396.32 
   16200    281.93321   -14.050495            0    3346.6665    277.40945    551714.81 
   16300    281.55276   -12.437598            0    3343.7443    272.51334    561197.11 
   16400    281.14133   -10.257726            0    3341.0198    267.12571    570832.13 
   16500    281.52712   -12.352524            0    3343.5238    263.03831    580618.04 
   16600    281.64672   -11.499887            0     3345.802    258.44049    590576.81 
   16700    281.75875   -12.291694            0    3346.3457    254.30624    600709.32 
   16800    281.72567   -14.530718            0    3343.7123    250.55951     611004.6 
   16900    281.23947   -11.819804            0    3340.6276    245.89383    621458.72 
   17000     281.2228    -11.89972            0     3340.349    241.12304     632087.5 
   17100    281.83631    -13.06587            0     3346.496    240.24249    642889.42 
   17200    281.72861   -9.4724924            0    3348.8057    233.67034    653884.39 
   17300    281.38151   -8.4412524            0    3345.6993    229.57738    665067.25 
   17400    281.20142   -9.4113161            0    3342.5826    225.65218    676424.33 
   17500    281.19696   -8.3358872            0    3343.6049    222.43425    687961.77 
   17600    281.87686   -9.8328326            0    3350.2125     219.7358    699690.24 
   17700     282.0626   -10.055453            0     3352.204    215.88719    711630.28 
   17800    281.62936    -10.66575            0    3346.4292    211.39924    723772.86 
   17900    281.09817   -9.7251035            0    3341.0381    207.23332    736095.55 
   18000    281.32251   -10.752887            0    3342.6844     204.5221    748607.01 
   18100    281.69883   -9.2641041            0     3348.659    201.48724    761337.28 
   18200    281.87103   -8.9287335            0    3351.0471    197.75393    774297.27 
   18300     281.4578   -8.1004816            0    3346.9495    195.36942    787472.76 
   18400    281.50544   -11.055117            0    3344.5628    191.11143    800845.26 
   18500    281.25622   -7.7469003            0    3344.9002    187.71637    814439.69 
   18600    281.75861   -11.937205            0    3346.6985    184.55587    828256.59 
   18700    281.56368   -9.4822657            0    3346.8298    182.02835    842301.97 
   18800    281.63049   -8.6827011            0    3348.4258    179.24492    856584.53 
   18900    281.55167   -8.1007591            0    3348.0681     175.8947    871108.26 
   19000    281.46768   -10.002177            0    3345.1656    174.06566    885865.05 
   19100    281.17666   -7.1283577            0    3344.5704    169.78102    900853.98 
   19200    282.07763   -10.312461            0    3352.1261    167.44399    916091.37 
   19300    281.86254   -7.3962977            0    3352.4783    164.35042    931608.38 
   19400    281.76744   -10.471656            0    3348.2693    162.29608    947368.84 
   19500    281.22157   -9.2813043            0    3342.9528    158.81655    963370.68 
   19600    281.22495   -7.1653327            0     3345.109     156.2843    979621.06 
   19700     282.0334   -8.9066162            0    3353.0046    153.67922    996153.33 
   19800    281.81149   -7.4314386            0    3351.8346    150.91328    1012983.1 
   19900    281.35366   -8.2282669            0    3345.5803    149.21233    1030075.3 
   20000    281.24028   -8.0176659            0    3344.4394    145.92052    1047423.1 
   20100    281.48253   -6.4246405            0    3348.9202    143.67176    1065065.5 
   20200    281.87489   -7.7753891            0    3352.2464    141.27834      1083009 
   20300    281.64608   -7.7006898            0    3349.5936    138.94198    1101258.5 
   20400    281.40945   -7.0705825            0    3347.4031    136.80649    1119794.5 
   20500    281.37412   -6.4283082            0    3347.6242    134.23094    1138627.4 
   20600     281.6429   -8.2482388            0    3349.0081    132.88645    1157767.2 
   20700     281.5273   -6.8057572            0    3349.0727    130.22594    1177227.1 
   20800    281.59285   -6.2802927            0    3350.3796    127.72406    1197001.5 
   20900    281.66311    -6.663368            0     3350.834    125.90391      1217100 
   21000    281.52398   -6.9624534            0    3348.8765    123.63063    1237527.7 
   21100    281.38103   -6.4795541            0    3347.6553    121.42732    1258284.7 
   21200    281.54436   -7.2901525            0    3348.7917    119.75468    1279365.1 
   21300    281.54104   -6.1800625            0    3349.8621    117.57672    1300796.9 
   21400    281.56578   -5.5358665            0    3350.8013    115.83929    1322583.9 
   21500    281.61988    -6.516124            0    3350.4659    113.92407    1344737.8 
   21600    281.55689   -5.9713645            0    3350.2598    111.96615    1367242.9 
   21700    281.56359   -6.8750085            0    3349.4361    110.53768    1390115.2 
   21800    281.53029   -7.0909158            0    3348.8232    108.25128    1413350.6 
   21900    281.61093   -6.4252642            0      3350.45    106.57831    1436963.3 
   22000    281.69546     -6.83842            0    3351.0446    104.99343    1460966.1 
   22100    281.39681   -4.3183747            0    3350.0046    103.50825    1485364.4 
   22200     281.5093   -5.8481588            0    3349.8158    101.44044    1510159.5 
   22300    281.58135   -5.0184337            0    3351.5044    99.791669      1535347 
   22400     281.7392   -6.5205987            0    3351.8838    98.117227    1560951.8 
   22500      281.694   -7.6763247            0    3350.1892    96.681828    1586965.8 
   22600    281.40867   -5.3992619            0    3349.0651    94.938148    1613397.8 
   22700     281.5412   -6.0324935            0    3350.0116    93.260472    1640249.4 
   22800    281.44645   -4.8399982            0    3350.0747      91.7625    1667546.2 
   22900     281.6006   -4.9806345            0    3351.7715    90.430156    1695278.8 
   23000    281.76792   -5.3957694            0    3353.3509    89.002084    1723473.4 
   23100    281.63083   -5.9948832            0    3351.1177    87.393795    1752133.1 
   23200    281.41306   -6.0960623            0    3348.4206    85.946212    1781234.2 
   23300    281.48435    -5.357199            0    3350.0092    84.527053    1810790.6 
   23400    281.81224   -6.1494741            0    3353.1255    83.214652    1840840.7 
   23500    281.66243   -5.0321112            0    3352.4571    81.930793    1871395.8 
   23600    281.63698   -6.8364306            0    3350.3494    80.539706    1902432.6 
   23700    281.29752   -4.2220718            0    3348.9173    79.382058    1933963.3 
   23800    281.59081   -5.6379131            0    3350.9976    78.060675    1965990.9 
   23900    281.72141   -4.9386737            0    3353.2536    76.665789    1998551.5 
   24000    281.65565   -4.4810157            0    3352.9273    75.722739    2031639.2 
   24100    281.45868   -4.7057741            0    3350.3547    74.074634      2065258 
   24200    281.38003    -4.518904            0     3349.604    72.928496    2099393.4 
   24300    281.70407   -4.7156222            0    3353.2699    72.038665    2134073.7 
   24400    281.81398    -4.410438            0    3354.8853    70.640367    2169349.2 
   24500    281.58368   -4.2434601            0     3352.307    69.538568    2205194.5 
   24600    281.52189   -6.3286139            0    3349.4853    68.311181    2241586.5 
   24700     281.4078   -4.6902963            0    3349.7637    67.265242    2278539.6 
   24800    281.92268   -6.2969822            0    3354.2946    66.187757    2316096.1 
   24900    281.87188   -5.5637503            0    3354.4221    65.140024    2354295.3 
   25000    281.42978   -4.9024611            0    3349.8135     64.02777    2393089.3 
   25100    281.34398   -5.6214227            0    3348.0718    62.865103      2432466 
   25200    281.63824    -5.032209            0    3352.1686    62.156476    2472470.4 
   25300     281.9404   -5.7896545            0    3355.0131    60.933419    2513154.7 
   25400    281.53912   -4.9860876            0    3351.0332    59.914079    2554507.8 
   25500    281.32104   -3.9137882            0     3349.506    58.942097    2596472.9 
   25600    281.64054   -4.8808068            0    3352.3474      58.3068      2639094 
   25700    281.76728   -5.3466061            0    3353.3925    57.205921    2682432.5 
   25800    281.70855   -6.0691423            0    3351.9699    56.305379    2726475.1 
   25900    281.42234   -4.2365735            0    3350.3908    55.198309    2771186.6 
   26000    281.54701   -5.1936505            0    3350.9198    54.503863    2816590.1 
   26100    281.47701    -4.944226            0    3350.3347    53.474533    2862729.7 
   26200    281.65621   -5.8524201            0    3351.5627    52.627883    2909602.5 
   26300    281.73246    -3.909515            0    3354.4145    51.921643    2957227.9 
   26400    281.67963   -4.1039857            0    3353.5903    51.080021    3005639.3 
   26500    281.25467   -3.4440261            0    3349.1846    50.068764    3054796.9 
   26600    281.50678   -5.0339921            0    3350.5999    49.570541    3104683.1 
   26700    282.12691   -6.7390659            0    3356.2868    48.601269    3155394.1 
   26800    282.03454    -4.223102            0    3357.7018    47.865393    3206985.4 
   26900    281.70625     -7.70718            0    3350.3044    47.034722    3259372.4 
   27000    280.95758   -3.8208058            0    3345.2664     46.24569    3312494.2 
   27100    282.14517   -6.7195276            0    3356.5241    45.743989    3366421.9 
   27200    282.61606   -4.4444419            0    3364.4123    44.895178    3421354.4 
   27300    281.97089   -3.8417036            0    3357.3244    44.133266    3477220.3 
   27400    280.98848   -3.9236688            0    3345.5319    43.244007    3533854.3 
   27500    281.00132   -3.3214998            0    3346.2871    42.584472    3591232.4 
   27600    282.42326   -3.6029442            0    3362.9555    42.086841    3649578.7 
   27700    282.96929   -4.1724393            0    3368.8949    41.502337    3709072.1 
   27800    281.98031   -4.2075882            0    3357.0709    40.700925    3769540.2 
   27900    280.85292   -4.0259105            0    3343.8138    39.895385    3830763.1 
   28000     280.9456   -3.7741542            0    3345.1703    39.344183    3892766.4 
   28100    282.51435    -3.805716            0    3363.8386    38.990456    3955827.8 
   28200    283.20015   -4.7615683            0    3371.0577    38.341023    4020165.5 
   28300    282.33726   -4.5979261            0    3360.9354    37.625395    4085571.3 
   28400    281.29709   -4.5687553            0    3348.5655    37.002114    4151801.6 
   28500     280.5793   -4.3367327            0    3340.2413    36.177604    4218863.1 
   28600    282.21168   -4.1608005            0    3359.8757    35.791115    4286938.5 
   28700    283.97119   -3.5357769            0    3381.4744    35.455761    4356434.7 
   28800    283.54863   -4.9571082            0    3375.0161    34.858798      4427295 
   28900    284.17714   -3.3090974            0    3384.1561    34.373196    4499130.8 
   29000    290.77919   -5.1253887            0    3461.0379    34.636683    4572610.6 
   29100    283.62855   -3.3800596            0    3377.5458    33.217298    4647877.6 
   29200    277.23467   -3.1476303            0    3301.5616    31.929516    4722771.2 
   29300    280.41865   -5.1230206            0      3337.54    31.801387    4797782.4 
   29400    281.42602   -3.7905225            0    3350.8806    31.469564    4874662.2 
   29500    282.01345   -3.9313372            0    3357.7422    30.954849    4953140.2 
   29600    284.07671   -3.6521171            0    3382.6159    30.687252    5033063.1 
   29700    284.68087   -4.1415084            0    3389.3283    30.290223    5114585.7 
   29800    284.84747   -4.6422125            0    3390.8136    29.793176    5197413.4 
   29900    288.37111   -3.6848909            0    3433.7736     29.68673      5281716 
   30000    284.81251   -4.0423112            0    3390.9967    28.857129    5367790.7 
   30100    276.63193   -4.5673426            0     3292.957    27.612733    5454000.2 
   30200     279.6545   -3.4124274            0    3330.1417    27.489624    5539943.4 
   30300    283.84335   -3.6186662            0    3379.8677    27.513551    5628338.9 
   30400    282.35859   -3.2344071            0    3362.5532    26.888322    5719013.6 
   30500     282.8038   -3.3290637            0    3367.7656    26.488849    5810789.4 
   30600     285.6971    -2.913363            0    3402.6701    26.323721    5904142.8 
   30700     285.7379    -2.828669            0    3403.2412    25.905762    5999543.4 
   30800    281.50685   -3.0507875            0    3352.5839    25.116658    6096171.2 
   30900     277.7636   -3.2194315            0    3307.7948    24.407861    6192970.2 
   31000    282.94547   -3.2409862            0    3369.5424    24.473363    6290740.7 
   31100    284.76816   -4.5913061            0     3389.919    24.277481    6391413.8 
   31200      282.613   -3.5319383            0    3365.2883    23.698939    6494049.9 
   31300    282.82073   -3.5261036            0    3367.7704    23.356526    6597634.1 
   31400    288.14597   -3.3348216            0    3431.4399    23.388836    6703216.6 
   31500    284.87812   -4.6348793            0    3391.1862    22.827072    6811447.4 
   31600    277.29801    -3.072315            0    3302.3919    21.803257    6920016.5 
   31700    279.13431    -4.238898            0    3323.1145    21.600551    7028123.8 
   31800    285.39597   -3.8325225            0    3398.1614    21.756478    7139154.1 
   31900    283.70893   -3.0101783            0    3378.8739    21.292709    7253525.1 
   32000    281.16793   -3.0859098            0    3348.5087    20.755005    7368988.6 
   32100    283.47411   -2.8718905            0     3376.213    20.603308    7485466.2 
   32200    286.35759   -3.4994821            0    3409.9573    20.505654    7604617.8 
   32300    283.04247    -3.464707            0    3370.4749    19.954621    7726143.4 
   32400    277.31527   -2.6976668            0    3302.9723    19.236109    7848121.7 
   32500    279.27284   -3.2044738            0    3325.8002     19.08263      7970205 
   32600    284.62852   -2.7163398            0    3390.1295    19.139344      8095362 
   32700     284.0747   -2.5723361            0    3383.6717     18.79709    8224133.1 
   32800    282.10582   -3.4768242            0    3359.2977    18.374793    8354512.1 
   32900    283.91589   -3.2928591            0    3381.0582    18.202261    8486131.2 
   33000     287.3136   -2.4081155            0    3422.4446    18.137873    8620587.3 
   33100    283.41512   -2.5110712            0    3375.8707    17.617761      8757850 
   33200    273.89617   -2.3872712            0    3262.5261    16.755871    8895110.9 
   33300     275.4306   -3.1463054            0    3280.0579    16.596136    9031059.3 
   33400    281.78911    -2.766593            0    3356.2327    16.733462    9170493.6 
   33500    283.92608    -2.928138            0    3381.5444    16.600149    9314669.1 
   33600    284.45267    -2.658391            0    3388.0912    16.433723    9461873.6 
   33700    283.49807   -3.1065123            0     3376.264    16.067607    9611115.6 
   33800    283.82224     -2.67396            0    3380.5608    15.840613    9761951.3 
   33900    287.04165   -2.9191319            0    3418.6918    15.764016    9915377.3 
   34000    285.63154   -2.0509173            0    3402.7511     15.43394     10072143 
   34100    277.41455   -2.3540747            0    3304.4993    14.754382     10229955 
   34200    275.04332   -2.1156295            0    3276.4721    14.411375     10386411 
   34300    282.29695   -1.8201086            0    3363.2328    14.569525     10545444 
   34400    283.23491   -2.8513325            0    3373.3822    14.402728     10709804 
   34500    283.62849   -2.3599292            0    3378.5652    14.197174     10877267 
   34600    284.48393   -2.1425012            0    3388.9797    14.018515     11047203 
   34700    285.94281   -1.8073487            0    3406.7051    13.871169     11219913 
   34800    287.11608   -1.5753825            0    3420.9228    13.716063     11395807 
   34900    283.95899   -1.9198122            0     3382.945    13.359355     11574412 
   35000    277.44835    -1.710147            0    3305.5461    12.919625     11753351 
   35100    280.27321   -1.6151539            0    3339.3143      12.7882     11932201 
   35200    284.40945   -1.3778943            0    3388.8565    12.779781     12115781 
   35300    282.76675   -1.4980725            0    3369.1549    12.512568     12303975 
   35400    282.18637   -2.1376252            0    3361.5971    12.295707     12494031 
   35500    286.98529   -1.7358931            0    3419.2033    12.311702     12686865 
   35600       286.91   -1.8278331            0    3418.2138    12.122407     12884814 
   35700     278.3743   -1.9730111            0    3316.3208    11.587998     13084602 
   35800    269.71848   -1.8425407            0    3213.2717    11.055891     13281515 
   35900    279.37237   -2.4488819            0    3327.7422    11.279345     13478520 
   36000    283.02299   -1.4558579            0    3372.2516    11.264785     13683578 
   36100    285.07912   -1.4015933            0    3396.8154     11.16991     13894738 
   36200    283.86233   -1.2399062            0    3382.4726    10.959754     14109576 
   36300    281.77541  -0.75679913            0    3358.0791    10.712384     14326059 
   36400    283.92377   -1.6333839            0    3382.8117    10.650049     14544382 
   36500    286.80353  -0.73139417            0    3418.0411    10.578016     14767432 
   36600    283.39241  -0.98021752            0    3377.1308    10.295089     14994848 
   36700    274.49185  -0.77104015            0    3271.2431    9.8208957     15222262 
   36800    276.16956   -0.9492079            0    3291.0635    9.7380503     15447477 
   36900    282.23842  -0.72126721            0    3363.6339    9.8046617     15678278 
   37000    283.83646   -1.3132707            0    3382.0909    9.7139766     15916624 
   37100    284.11125   -1.0258101            0     3385.654    9.5733041     16159476 
   37200    283.81072  -0.85616967            0    3382.2413     9.422367     16405406 
   37300    285.26293  -0.95086585            0    3399.4573    9.3303333     16654376 
   37400    287.29495  -0.64389011            0    3423.9864    9.2548572     16907948 
   37500    283.85214   -1.2095984            0    3382.3815    9.0263723     17165770 
   37600    275.86064   -1.0232037            0    3287.3072    8.6265742     17423365 
   37700    279.15551  -0.72539058            0    3326.8808     8.599933     17679426 
   37800    283.50709  -0.60434612            0    3378.8737    8.6063376     17942491 
   37900    282.99287  -0.69767599            0    3372.6507    8.4630826     18212628 
   38000    283.24882   -0.9921773            0    3375.4072    8.3454364     18486198 
   38100    285.90477   -1.2588807            0    3406.8001    8.2998258     18763726 
   38200    287.43732   -1.1292678            0    3425.1982    8.2204755     19047020 
   38300    283.09986   -1.9200542            0    3372.7037    7.9738779     19334488 
   38400    275.50122  -0.99856441            0    3283.0475    7.6471028     19620724 
   38500    280.25837  -0.72414061            0    3340.0283    7.6682994     19905904 
   38600     283.4884  -0.79357906            0    3378.4616    7.6439829     20199419 
   38700    283.13379    -1.961992            0    3373.0662    7.5224575     20500105 
   38800    283.41941    -0.917173            0    3377.5157     7.419875     20804499 
   38900    286.63667  -0.51175367            0    3416.2717    7.3947494     21113466 
   39000    287.86649  -0.56507765            0    3430.8782    7.3169533     21429297 
   39100    280.06927  -0.26137183            0     3338.237    7.0154301     21748793 
   39200    273.98594 -0.011793068            0    3265.9717    6.7664215     22063941 
   39300    280.75487  -0.00728345            0    3346.6636    6.8357644     22379786 
   39400    282.59932 -0.0099149358            0    3368.6473    6.7817992     22706015 
   39500    283.70246 -0.031711122            0    3381.7751    6.7095743     23039577 
   39600     284.4641 -0.0079438083            0    3390.8779    6.6302115     23378443 
   39700    285.19392   -0.1516418            0    3399.4339    6.5501474     23722028 
   39800    287.05138  -0.26840983            0    3421.4585     6.496693     24070736 
   39900      285.318  -0.10282165            0    3400.9617    6.3646247     24425104 
   40000    278.39342 -0.021699897            0    3318.5001    6.1215008     24780561 
   40100     278.0932 -0.023912375            0    3314.9191    6.0290569     25133339 
   40200    284.50176 -0.0050130036            0    3391.3298    6.0811685     25492625 
   40300    283.31502 -0.042982581            0    3377.1455    5.9689602     25862647 
   40400    281.75412  -0.01195972            0    3358.5702     5.851681     26236359 
   40500    285.29182 -0.0083012735            0    3400.7442    5.8412374     26613368 
   40600    287.86287 -0.024831563            0    3431.3752    5.8095023     26999510 
   40700     281.3595 -0.073419478            0    3353.8048    5.5967469     27391538 
   40800      271.041  -0.10269169            0    3230.7763    5.3162622     27778337 
   40900     278.3864  -0.24907875            0     3318.189    5.3857225     28159740 
   41000    282.62611  -0.14461196            0     3368.832    5.3925747     28554885 
   41100    284.73143  -0.11421576            0    3393.9583    5.3563652     28962843 
   41200    284.24409 -0.0021191493            0    3388.2612    5.2721098     29378170 
   41300    282.30172 -0.0010414917            0    3365.1087    5.1625701     29796532 
   41400    283.10475 -0.0014017841            0    3374.6807    5.1052315     30216888 
   41500    286.87078 -0.0035315672            0    3419.5706    5.1010097     30644135 
   41600     285.0896 -0.016949052            0    3398.3251    4.9980926     31080584 
   41700    276.09478 -0.0086706009            0    3291.1127    4.7733029     31517686 
   41800    274.49865 -0.0017064263            0    3272.0934    4.6819566     31947046 
   41900    281.84437 -0.0013557038            0    3359.6566    4.7425929     32382588 
   42000    283.40753 -0.023592242            0    3378.2677    4.7033386     32833309 
   42100    284.21743 -0.002496269            0    3387.9429    4.6517513     33292914 
   42200    284.13482 -0.0068542284            0    3386.9538    4.5862718     33758301 
   42300    284.47297 -0.0080617379            0    3390.9835    4.5286935     34228159 
   42400    286.32639 -0.0047769256            0    3413.0801    4.4957241     34703915 
   42500    285.40974 -0.0018160332            0    3402.1563     4.419799     35187153 
   42600    279.76243 -0.001484782            0    3334.8393    4.2733906     35672602 
   42700    277.80362 -0.0022793651            0    3311.4889    4.1869628     36154008 
   42800    284.70793 -0.0082528187            0    3393.7841    4.2339834     36640872 
   42900    284.18042 -0.013401981            0    3387.4909    4.1689807     37143060 
   43000     281.4209 -0.0068589472            0    3354.6032    4.0728845     37650448 
   43100    283.42301 -0.0095375299            0    3378.4663    4.0471991     38158863 
   43200    288.49129    -1.663931            0     3437.227    4.0613097     38677944 
   43300    283.41739 -0.091170716            0    3378.3176    3.9385251     39208183 
   43400    278.03892 -0.017768329            0    3314.2782    3.8128625     39734343 
   43500    285.97228 -0.0053896284            0    3408.8584    3.8706625     40258273 
   43600    286.69345  -0.11891965            0    3417.3414    3.8284239     40801146 
   43700    280.21783   -1.0318598            0    3339.2373    3.6937835     41350757 
   43800    278.62143 -0.0017994126            0     3321.238    3.6239517     41893821 
   43900     284.9236 -0.0009820895            0    3396.3623    3.6580808     42441753 
   44000    283.99933 -0.0080751205            0    3385.3377    3.5983846     43005619 
   44100    281.40244   -1.9512055            0    3352.4388    3.5188198     43574071 
   44200    283.31221 -0.0053035685            0    3377.1498    3.4971907     44143067 
   44300    289.26178 -0.00049231609            0     3448.075     3.524226     44724519 
   44400    284.08276 -0.0038841215            0    3386.3363    3.4156642     45319673 
   44500     279.8568  -0.14460134            0     3335.821    3.3211939     45909815 
   44600     280.6385 -0.069152513            0    3345.2145    3.2886733     46496299 
   44700    281.99523  -0.16395963            0    3361.2924     3.262643     47090129 
   44800     282.0703  -0.20198653            0    3362.1492    3.2221341     47693367 
   44900    282.64528 -0.016215108            0    3369.1888    3.1884229     48303445 
   45000    284.21703 -0.0017020529            0     3387.939    3.1657109     48921160 
   45100    289.88602   -0.0502652            0    3455.4663    3.1877738     49549538 
   45200    291.29288  -0.01130922            0    3472.2753    3.1620079     50197402 
   45300    280.22551 -0.00074348483            0      3340.36    3.0030223     50847240 
   45400    278.85807 -0.00074294181            0    3324.0598    2.9517127     51478680 
   45500    282.79581 -0.0023876766            0     3370.997     2.957048     52111339 
   45600    284.44639 -0.0043392055            0    3390.6704    2.9377226     52760212 
   45700    283.01817 -0.0013292838            0    3373.6486     2.886871     53420135 
   45800    283.14471 -0.00050714818            0    3375.1579    2.8527839     54082647 
   45900    288.65245 -0.0024663523            0    3440.8097    2.8726098     54754049 
   46000    285.05228 -0.018302876            0    3397.8788    2.8015852     55441153 
   46100    277.22117 -0.0089075013            0    3304.5393     2.691593     56121859 
   46200    280.25271 -0.014889626            0    3340.6701    2.6890673     56788566 
   46300      285.302 -0.0020042748            0    3400.8719    2.7050459     57470896 
   46400    282.36327 -0.0011172429            0    3365.8423    2.6449755     58170751 
   46500     280.8273 -0.010607521            0    3347.5237    2.5993392     58869563 
   46600    285.10106 -0.0012318581            0    3398.4773    2.6078647     59570584 
   46700    286.71999 -0.0005472727            0    3417.7761    2.5914488     60288391 
   46800    281.11742 -0.00064354957            0    3350.9919    2.5105937     61014018 
   46900     271.2512 -0.0022272847            0    3233.3825    2.3946234     61723722 
   47000    277.55731 -0.0040620088            0    3308.5511    2.4232375     62412796 
   47100    282.45412 -0.040202714            0    3366.8861    2.4381424     63123632 
   47200    284.77883  -0.12143345            0    3394.5161    2.4296744     63860612 
   47300    284.42742  -0.11241198            0    3390.3362    2.3984876     64611620 
   47400    282.04964 -0.029098694            0    3362.0758     2.351208     65364486 
   47500    282.09591 -0.0020378596            0    3362.6543    2.3250278     66112928 
   47600     286.8362 -0.00084642297            0    3419.1611    2.3374176     66867625 
   47700    285.84906 -0.068895039            0     3407.326    2.3026378     67640024 
   47800    277.42303 -0.00068411349            0    3306.9538     2.209713     68410840 
   47900    273.85943 -9.6809721e-05            0    3264.4753    2.1578351     69155697 
   48000    283.24361 -8.5742689e-05            0    3376.3373     2.208023     69899660 
   48100     283.8849 -0.00020885042            0    3383.9814    2.1887554     70674629 
   48200    283.12844 -0.00020484778            0    3374.9642    2.1588631     71462281 
   48300    283.17279 -0.00036767905            0    3375.4927    2.1356087     72251731 
   48400    285.39772 -0.00012970128            0    3402.0147    2.1290098     73045142 
   48500    286.76196 -0.00033300194            0    3418.2766    2.1158708     73850056 
   48600    282.39606 -0.00042071078            0    3366.2339    2.0610188     74661220 
   48700    275.83886 -0.00048247081            0    3288.0702    1.9919691     75455553 
   48800    281.46356 -0.0023604252            0    3355.1162     2.011883     76231961 
   48900    284.67614 -0.033443819            0      3393.38    2.0136895     77030796 
   49000    282.85086  -0.83675622            0    3370.8189    1.9789342     77848733 
   49100     281.5705 -0.019913472            0    3356.3735    1.9503665     78665042 
   49200    286.40974 -0.0065143884            0    3414.0718    1.9635285     79481608 
   49300    287.95925 -0.0027747854            0    3432.5462    1.9535645     80319462 
   49400    279.83155 -0.0011067183            0    3335.6636    1.8787038     81162701 
   49500    275.00135 -0.0007706924            0    3278.0866    1.8280155     81973445 
   49600    285.47405 -0.00062262169            0    3402.9241     1.879315     82772368 
   49700    284.20384 -0.002054804            0    3387.7814    1.8522738     83606975 
   49800    280.69232 -0.035009346            0    3345.8902    1.8111235     84447635 
   49900    281.50955 -0.0012460097            0    3355.6656     1.798788     85276865 
   50000    286.23679 -0.00027168226            0    3412.0166    1.8112467     86112522 
   50100    285.25092 -0.00014012129            0    3400.2648    1.7872356     86968855 
   50200    277.88721 -0.00026114446            0    3312.4874    1.7241939     87821512 
   50300     272.5037 -0.0010646878            0    3248.3137    1.6752356     88636914 
   50400    282.05773 -0.0015525128            0    3362.1997    1.7184875     89435425 
   50500    284.11909 -0.014923197            0    3386.7583    1.7150074     90270789 
   50600    283.89274 -0.022383797            0    3384.0527    1.6974986     91128625 
   50700    282.75069 -0.068101696            0    3370.3935    1.6747861     91989186 
   50800    283.28742  -0.07855785            0     3376.781    1.6624967     92844285 
   50900    286.56606 -0.0051765456            0    3415.9366    1.6664364     93702805 
   51000    286.20571 -0.021046232            0    3411.6253    1.6489469     94576269 
   51100    278.23635  -0.17931826            0    3316.4702    1.5882461     95443783 
   51200    276.01736 -0.013060451            0    3290.1854    1.5622863     96269600 
   51300     284.0433 -0.00073642759            0    3385.8691    1.5942182     97085652 
   51400    283.80695 -0.0087313282            0    3383.0438    1.5790653     97935046 
   51500    282.03857 -0.019504251            0    3361.9534    1.5555757     98793502 
   51600    282.93688  -0.35120909            0    3372.3298    1.5467923     99644861 
   51700     287.7785 -0.0093947098            0     3430.385    1.5602585 1.0050248e+08 
   51800    286.34938 -0.0021637326            0    3413.3567    1.5390372 1.0138293e+08 
   51900    276.02635 -0.001084686            0    3290.3046    1.4709841 1.0224938e+08 
   52000    276.92615 -0.00063299742            0    3301.0309    1.4641689 1.0306023e+08 
   52100    281.37376 -0.0006629955            0    3354.0475    1.4761806 1.0386337e+08 
   52200    283.39152 -0.0014632341            0    3378.0989    1.4750163 1.0469068e+08 
   52300    284.71667 -0.002546721            0     3393.894    1.4700148 1.0553797e+08 
   52400    284.16122 -0.0052576106            0    3387.2701     1.455316 1.0639569e+08 
   52500    281.67725 -0.035757972            0    3357.6301    1.4310924 1.0724791e+08 
   52600    280.94695 -0.044436528            0    3348.9161    1.4163758 1.0808047e+08 
   52700    285.51509 -0.090483603            0    3403.3234    1.4284393 1.0890601e+08 
   52800    286.73825  -0.83774956            0    3417.1566    1.4229771 1.0975387e+08 
   52900    280.02612  -0.07094435            0     3337.913    1.3794568 1.1060679e+08 
   53000    274.09471 -0.036133851            0    3267.2439    1.3405169 1.1141217e+08 
   53100    283.70654 -0.015093873            0    3381.8405    1.3780691 1.1217889e+08 
   53200    284.71316 -0.0045645155            0    3393.8501    1.3731148 1.1298414e+08 
   53300    282.07402 -0.0018636958            0    3362.3937    1.3505249 1.1380945e+08 
   53400    280.94173 -0.0014633245            0    3348.8968    1.3355876 1.1462039e+08 
   53500    285.59283 -0.0028601444            0    3404.3377    1.3482821 1.1542078e+08 
   53600    287.85449 -0.010364298            0    3431.2898    1.3493113 1.1624532e+08 
   53700    279.97549 -0.00077887468            0    3337.3797    1.3030314 1.1708018e+08 
   53800    274.53638 -0.00011009574            0    3272.5448    1.2692983 1.1785682e+08 
   53900    279.82586 -0.00020255895            0    3335.5966    1.2858196 1.1858405e+08 
   54000    282.57578 -0.00014760704            0    3368.3764    1.2903875 1.1932551e+08 
   54100    284.97543 -6.3109084e-05            0     3396.981     1.293017 1.2009411e+08 
   54200    284.60826 -0.00050400443            0    3392.6037     1.282905 1.2088471e+08 
   54300     280.5577 -0.0020250447            0    3344.3185    1.2564657 1.2167163e+08 
   54400    277.91702 -0.00011889681            0    3312.8429    1.2370254 1.2242075e+08 
   54500    285.06972 -9.1713642e-05            0     3398.105    1.2614171 1.2314334e+08 
   54600    286.60977 -6.6991239e-05            0    3416.4628    1.2604825 1.239004e+08 
   54700    281.70795 -5.5294663e-05            0    3358.0318    1.2312392 1.246738e+08 
   54800    278.55209 -0.00013923965            0     3320.413    1.2102981 1.2541011e+08 
   54900    287.30326 -0.00017992563            0    3424.7292    1.2413521 1.2611422e+08 
   55000    288.00293 -0.00011298416            0    3433.0695    1.2370462 1.268614e+08 
   55100    280.74523 -0.00011179506            0    3346.5558     1.198695 1.2762102e+08 
   55200    279.08954 -0.0001410435            0    3326.8196    1.1850803 1.2832589e+08 
   55300    284.75334 -0.00026257617            0    3394.3335    1.2028412 1.2899682e+08 
   55400    286.01877 -0.00058777361            0    3409.4174    1.2017055 1.2969249e+08 
   55500    283.19408 -0.00086948408            0     3375.746     1.183364 1.3040194e+08 
   55600    281.33997 -0.00070503526            0    3353.6448    1.1694618 1.3108822e+08 
   55700    283.46656 -0.00058821105            0    3378.9943    1.1724116 1.3174679e+08 
   55800    289.48752 -0.00062169547            0    3450.7657    1.1912829 1.324138e+08 
   55900    285.77981 -0.00099746254            0    3406.5684    1.1697754 1.331212e+08 
   56000    276.55782 -0.0010361554            0    3296.6399    1.1263204 1.3379569e+08 
   56100    279.87052 -0.0014840978            0    3336.1278    1.1348022 1.343863e+08 
   56200    284.32102 -0.0015034554            0    3389.1788    1.1479137 1.3496393e+08 
   56300    284.59446 -0.00065632285            0    3392.4392    1.1438827 1.355699e+08 
   56400    281.62067 -0.015017023            0    3356.9764     1.126805 1.3618476e+08 
   56500    276.47986 -0.00058454786            0     3295.711    1.1015414 1.3676689e+08 
   56600    280.28925 -0.00055057466            0      3341.12    1.1124575 1.3729077e+08 
   56700    286.63442 -0.0015019303            0    3416.7551    1.1332423 1.3782358e+08 
   56800    284.42636 -0.00078391911            0    3390.4352    1.1197699 1.3840741e+08 
   56900    279.22037 -0.00049454378            0    3328.3787    1.0946901 1.3898703e+08 
   57000    280.05268 -0.049301956            0    3338.2513    1.0937652 1.3951316e+08 
   57100    289.14289 -0.0020994325            0    3446.6562    1.1251322 1.4003182e+08 
   57200    285.49016 -0.00068811727            0    3403.1161    1.1063595 1.4060901e+08 
   57300    279.72952 -0.0032444138            0    3334.4452    1.0796898 1.411746e+08 
   57400    280.86655  -0.23479898            0    3347.7674    1.0800236 1.4167706e+08 
   57500    285.71896 -0.0033696613            0    3405.8407    1.0951873 1.4215689e+08 
   57600    285.64561 -0.00032932163            0    3404.9694    1.0910222 1.4266335e+08 
   57700    283.33673 -0.00023895193            0     3377.447    1.0783231 1.4317673e+08 
   57800    282.36106 -0.0001916628            0    3365.8168    1.0709547 1.436654e+08 
   57900    282.92542 -0.00065600811            0    3372.5437    1.0696654  1.44126e+08 
   58000    284.93903 -0.00034642889            0    3396.5468    1.0739381 1.445743e+08 
   58100    285.41095 -0.00073467848            0    3402.1719    1.0723289 1.4503101e+08 
   58200    280.68321 -0.0019630795            0    3345.8147    1.0512691 1.454857e+08 
   58300    277.32695 -0.0021640662            0    3305.8071    1.0358612 1.4588419e+08 
   58400     284.9129 -0.00038343078            0    3396.2353    1.0617195 1.4622469e+08 
   58500    287.21123 -0.00029723106            0     3423.632    1.0675388 1.4660075e+08 
   58600     282.7969 -0.000266461            0    3371.0121     1.048166 1.4701547e+08 
   58700    280.47662 -0.00013436924            0     3343.354    1.0368391 1.4740215e+08 
   58800      283.478 -0.00012240413            0    3379.1312    1.0454985 1.4774557e+08 
   58900    293.86642 -0.00078556167            0    3502.9632    1.0811851 1.4810447e+08 
   59000    289.65524 -0.00026403693            0    3452.7654    1.0624157 1.4856119e+08 
   59100    283.66594 -3.7888594e-05            0    3381.3715    1.0371624 1.4903181e+08 
   59200    280.57475 -4.6195551e-05            0    3344.5237    1.0231172 1.4943135e+08 
   59300    282.20838 -3.8421019e-05            0    3363.9971    1.0268871 1.4974962e+08 
   59400    287.45934 -2.9781065e-05            0    3426.5899    1.0439839 1.5003797e+08 
   59500    286.24928 -5.9889078e-05            0    3412.1656    1.0373784 1.5035772e+08 
   59600    276.43627 -0.00024991861            0    3295.1918   0.99977197 1.5066505e+08 
   59700    278.81496 -0.000537588            0     3323.546    1.0070163 1.5086828e+08 
   59800    283.73903 -0.00027049574            0    3382.2425     1.023738 1.5102495e+08 
   59900    284.58088 -0.00038682059            0    3392.2776    1.0255486 1.512056e+08 
   60000    282.45946 -0.00025501773            0    3366.9897    1.0165315 1.5140971e+08 
   60100    277.86457 -7.9884457e-05            0    3312.2176   0.99875517 1.5159772e+08 
   60200    277.77059 -7.8486502e-05            0    3311.0974   0.99761559 1.5171955e+08 
   60300    286.47391 -0.00010787607            0    3414.8432    1.0282713 1.5180842e+08 
   60400    286.31413 -8.8908847e-05            0    3412.9386      1.02665 1.5196336e+08 
   60500    280.66238 -0.00015775239            0    3345.5682    1.0050828 1.5216012e+08 
   60600    279.44737 -0.00022894504            0    3331.0849   0.99968934 1.5231877e+08 
   60700    289.64379 -0.00028502628            0    3452.6288    1.0353163 1.5244375e+08 
   60800    289.85981 -0.00032376728            0    3455.2037    1.0346789 1.5265141e+08 
   60900    283.07411 -0.0005116075            0    3374.3163    1.0086627 1.5292291e+08 
   61000    280.31602 -0.00053784492            0    3341.4391   0.99732726 1.5315408e+08 
   61100    283.19158 -0.00049722725            0    3375.7166    1.0064842 1.533175e+08 
   61200    289.25258 -0.00026949105            0    3447.9655      1.02701 1.5346912e+08 
   61300    286.04439 -7.8189289e-05            0    3409.7232    1.0142362 1.5367841e+08 
   61400    277.03863 -2.2322072e-05            0    3302.3724   0.98104807 1.5387519e+08 
   61500    281.23202 -1.6621211e-05            0    3352.3586   0.99533026 1.5396291e+08 
   61600    286.31466 -2.20226e-05            0     3412.945     1.012981 1.5401423e+08 
   61700    284.68827 -4.1799489e-05            0     3393.558    1.0066739 1.5409882e+08 
   61800     278.9541 -0.00011422442            0    3325.2052   0.98584233 1.541856e+08 
   61900    275.03831 -0.00038965184            0    3278.5276   0.97193256 1.5419684e+08 
   62000    283.37578 -0.00090904266            0    3377.9118    1.0019623 1.5410955e+08 
   62100    287.98293 -0.0011178958            0    3432.8301    1.0186935 1.5404278e+08 
   62200    283.05409 -0.017225202            0     3374.061     1.001162 1.5405542e+08 
   62300    278.79455 -0.0060059997            0    3323.2973   0.98600417 1.5407129e+08 
   62400    282.84198 -0.0004309351            0    3371.5493    1.0005443 1.5403731e+08 
   62500    289.69398 -0.0029032814            0    3453.2245    1.0248991 1.5401953e+08 
   62600     284.9046 -0.039943557            0    3396.0967     1.007429 1.5409494e+08 
   62700    279.39094 -0.0072016503            0    3330.4053   0.98736914 1.5418727e+08 
   62800    282.22025 -0.001451074            0    3364.1372    0.9971437 1.5422274e+08 
   62900    286.26498 -0.0077750579            0     3412.345    1.0112842 1.5424482e+08 
   63000    284.97918 -0.00055006617            0    3397.0252    1.0063429 1.5430696e+08 
   63100    278.95802 -0.00055802555            0    3325.2514   0.98460102 1.5438209e+08 
   63200    279.39628 -0.00062895336            0    3330.4755   0.98609011 1.5439112e+08 
   63300    289.13427 -0.0017866916            0    3446.5538    1.0206826 1.5435714e+08 
   63400    287.28979 -0.001434888            0    3424.5674    1.0138998 1.5439853e+08 
   63500    282.33033 -0.00022523175            0    3365.4506    0.9957748 1.5449516e+08 
   63600    281.03339 -0.00021964464            0    3349.9907   0.99071104 1.5457149e+08 
   63700    284.26394 -0.0016054351            0    3388.4983    1.0018613 1.5460806e+08 
   63800    291.72668 -0.00020944017            0    3477.4575    1.0278203 1.546598e+08 
   63900    287.28685 -0.0010332893            0    3424.5327    1.0111312 1.5481976e+08 
   64000    279.40778 -0.0088630546            0    3330.6043   0.98212854 1.5501912e+08 
   64100    281.82946  -0.02584548            0    3359.4545   0.98983194 1.5514347e+08 
   64200    286.55993 -0.0080982685            0    3415.8606    1.0059452 1.5522319e+08 
   64300    285.29228 -0.00090798383            0     3400.757    1.0008626 1.5532228e+08 
   64400    276.39047 -5.6219968e-05            0    3294.6461   0.96907452 1.5541196e+08 
   64500    278.17213 -7.6497439e-05            0    3315.8839   0.97554183 1.5537683e+08 
   64600    283.28122  -0.19231488            0    3376.5933   0.99422998 1.5523128e+08 
   64700    284.25628 -0.00011855238            0    3388.4085   0.99897197 1.5505125e+08 
   64800    282.97032 -1.8402255e-05            0    3373.0796   0.99568647 1.5485913e+08 
   64900    280.00496 -8.6351575e-06            0    3337.7317   0.98666013 1.5463817e+08 
   65000    279.61345 -2.4930203e-05            0    3333.0649   0.98712927 1.5434856e+08 
   65100    286.97209 -8.3496014e-05            0    3420.7817    1.0154134 1.5399807e+08 
   65200    288.23069 -0.00015084353            0    3435.7845    1.0218982 1.5369194e+08 
   65300    280.68328 -0.00013928392            0    3345.8174   0.99665824 1.5345774e+08 
   65400    280.27427 -0.00030234769            0    3340.9417   0.99682971 1.5320774e+08 
   65500    283.49828 -0.033796711            0    3379.3393    1.0100958 1.5293029e+08 
   65600    285.04783 -0.029984848            0    3397.8141    1.0172998 1.5267781e+08 
   65700    281.57331 -0.0061964113            0    3356.4208    1.0062208 1.5248052e+08 
   65800    273.79076 -0.012136767            0    3263.6447   0.97966477 1.5228426e+08 
   65900    280.61153 -0.011827498            0    3344.9505    1.0059645 1.5199763e+08 
   66000    285.15949 -0.044838808            0    3399.1302    1.0242403 1.5170066e+08 
   66100    284.03069 -0.0009829622            0    3385.7185    1.0217184 1.5147893e+08 
   66200    280.48857 -0.00033351945            0    3343.4961    1.0099644 1.5133086e+08 
   66300    279.49432 -0.00033815631            0    3331.6445     1.007152 1.5121553e+08 
   66400    287.33677 -0.00051827294            0    3425.1283    1.0359726 1.5113369e+08 
   66500    288.56031 -0.00042053341            0    3439.7134    1.0399433 1.5119775e+08 
   66600    281.00354 -0.00026909111            0    3349.6348    1.0110128 1.5145151e+08 
   66700    279.95167 -0.0001142703            0    3337.0964    1.0047992 1.5181767e+08 
   66800     282.7999 -4.5434947e-05            0    3371.0481    1.0119494 1.5227865e+08 
   66900    284.21529 -4.0396646e-05            0    3387.9199    1.0130342 1.528769e+08 
   67000     283.1637 -9.9551894e-05            0    3375.3847    1.0043127 1.5363393e+08 
   67100    281.25811 -0.00019471632            0    3352.6695   0.99185249 1.5451707e+08 
   67200    281.65097 -0.00040610894            0    3357.3522   0.98724547 1.5545493e+08 
   67300    285.47989 -0.00029966527            0     3402.994   0.99465173 1.5639502e+08 
   67400    285.73745 -0.0004011992            0    3406.0641   0.98966705 1.5732453e+08 
   67500    280.70637 -0.011478336            0    3346.0813   0.96695358 1.5818334e+08 
   67600    277.83858 -0.00040595649            0    3311.9075   0.95306046 1.588512e+08 
   67700    286.26343 -0.00012910163            0    3412.3342   0.97933848 1.5927645e+08 
   67800    287.72329 -8.3093888e-05            0    3429.7362   0.98256027 1.5956379e+08 
   67900    282.45849 -0.00015495964            0    3366.9783   0.96350102 1.5974267e+08 
   68000    280.70264 -0.0021275739            0    3346.0461    0.9575074 1.5974309e+08 
   68100    283.31219 -0.010482337            0    3377.1444    0.9676019 1.5954495e+08 
   68200     286.2672 -0.004383123            0    3412.3749   0.97982857 1.5919828e+08 
   68300    286.67593 -0.001142328            0    3417.2503   0.98390962 1.5876477e+08 
   68400    280.75094 -0.0010178401            0     3346.623   0.96665889 1.5825816e+08 
   68500    279.37757 -0.00034143621            0    3330.2528   0.96582151 1.5762064e+08 
   68600    285.15913 -0.0015706654            0    3399.1692   0.99054414 1.5686693e+08 
   68700    288.40424 -0.027499457            0    3437.8259    1.0065884 1.5611978e+08 
   68800    280.68278 -0.015011923            0    3345.7965   0.98385836 1.5545185e+08 
   68900    279.13212 -0.0083258883            0    3327.3189   0.98259659 1.5479248e+08 
   69000    283.45588 -0.0003112959            0    3378.8673    1.0020477 1.5414006e+08 
   69100    285.73162 -0.00030084254            0    3405.9947     1.013799 1.5357655e+08 
   69200    281.93578 -0.0049611341            0    3360.7427    1.0031832 1.5313928e+08 
   69300     274.1548 -0.013895365            0    3267.9824     0.977889 1.527634e+08 
   69400    280.16606 -0.00030495655            0    3339.6518    1.0019588 1.5236461e+08 
   69500    284.19377 -0.002197315            0    3387.6612    1.0186566 1.520213e+08 
   69600    284.00346  -0.23766781            0    3385.1573    1.0192853 1.5179629e+08 
   69700    281.53901  -0.06162147            0    3355.9563    1.0113774 1.5167721e+08 
   69800    280.11946 -0.0034008182            0    3339.0932    1.0067017 1.5162113e+08 
   69900    285.20577 -0.0069127438            0    3399.7199    1.0250581 1.5160926e+08 
   70000    289.25257 -0.0042874716            0    3447.9614    1.0389434 1.5170584e+08 
   70100    281.77767 -0.0011840623            0    3358.8617    1.0105003 1.5194564e+08 
   70200    278.49078 -0.00069103261            0    3319.6816   0.99690594 1.5222112e+08 
   70300    281.91536 -0.0010024584            0    3360.5033    1.0074945 1.5247345e+08 
   70400    284.53241 -0.0042500644            0    3391.6959    1.0150552 1.5274218e+08 
   70500    284.00708 -0.0090823554            0     3385.429    1.0110854 1.5305813e+08 
   70600    279.16265 -0.00096988417            0    3327.6902   0.99161987 1.5340173e+08 
   70700    274.21707 -0.00033915533            0    3268.7382   0.97223809 1.5368811e+08 
   70800    283.04031 -0.0010878216            0    3373.9128    1.0023936 1.5386086e+08 
   70900    285.90273 -0.00088746126            0    3408.0338    1.0114472 1.5402573e+08 
   71000    282.91041 -0.00043616542            0     3372.365   0.99953018 1.542309e+08 
   71100    279.05048 -0.00046890914            0    3326.3536   0.98463042 1.5442866e+08 
   71200    282.27517 -0.0015492247            0    3364.7917   0.99514449 1.5456263e+08 
   71300    289.89255  -0.38364604            0    3455.2108    1.0208951 1.5468463e+08 
   71400     284.9219 -0.00052639923            0    3396.3424     1.002376 1.5488649e+08 
   71500    280.31785 -0.00019412999            0    3341.4613   0.98479508 1.5510413e+08 
   71600    281.76455 -0.00013364529            0    3358.7064   0.98885987 1.5526376e+08 
   71700    284.40365 -0.00030411726            0    3390.1649   0.99739207 1.5537734e+08 
   71800    284.43789  -0.21486749            0    3390.3586   0.99667809 1.5547963e+08 
   71900    276.70891 -0.0016284326            0    3298.4404    0.9692474 1.5556304e+08 
   72000    274.77673 -9.9992281e-05            0    3275.4098    0.9627726 1.5551588e+08 
   72100    283.76284 -0.0045852177            0    3382.5221   0.99560613 1.5530476e+08 
   72200    285.94967 -0.00096290137            0    3408.5933    1.0049542 1.5504634e+08 
   72300    282.59521 -5.8603694e-05            0    3368.6081   0.99484139 1.5478522e+08 
   72400    278.54188 -0.00019594522            0    3320.2913   0.98252416 1.5447768e+08 
   72500    282.66565 -0.056396861            0    3369.3914   0.99965409 1.540708e+08 
   72600    290.88519 -0.00049361736            0    3467.4264    1.0316752 1.5363742e+08 
   72700    285.28741 -0.004022615            0    3400.6959    1.0140706 1.5329621e+08 
   72800    281.27144 -7.8645899e-05            0    3352.8285    1.0017528 1.5299724e+08 
   72900    282.29826 -4.0534634e-05            0    3365.0684    1.0074617 1.5268564e+08 
   73000    285.45378 -5.4659817e-05            0     3402.683    1.0207575 1.5238132e+08 
   73100    287.88524 -8.7745268e-05            0    3431.6667    1.0310653 1.5214292e+08 
   73200      282.013 -0.00016703264            0    3361.6679     1.010905 1.5201179e+08 
   73300    278.03256 -0.0007171201            0    3314.2195   0.99722003 1.519228e+08 
   73400    283.45256 -0.0010396986            0     3378.827    1.0173246 1.5182349e+08 
   73500    287.63544 -0.00070566889            0    3428.6884    1.0325632 1.517903e+08 
   73600    284.14725 -0.069787225            0    3387.0391    1.0192573 1.5189791e+08 
   73700      281.964 -0.0012126833            0    3361.0828      1.00999 1.5212293e+08 
   73800    282.44089 -0.00093685124            0    3366.7677    1.0095777 1.5244249e+08 
   73900    283.94262 -0.0017295422            0     3384.668    1.0120988 1.5287116e+08 
   74000    285.73051 -0.0003548878            0    3405.9814    1.0146941 1.5344047e+08 
   74100    285.75722 -0.003336879            0    3406.2969    1.0099069 1.5418182e+08 
   74200    280.35355 -0.006085514            0     3341.881   0.98508543 1.5507735e+08 
   74300    278.24644 -0.00089481213            0    3316.7689   0.97184328 1.560097e+08 
   74400     285.4836 -0.0014205996            0    3403.0372   0.99151599 1.5689152e+08 
   74500    286.26774 -0.0078110913            0    3412.3779   0.98879311 1.5775479e+08 
   74600    282.15571 -0.0016905004            0    3363.3675   0.96960954 1.5856592e+08 
   74700     280.7166  -0.90877418            0    3345.3059   0.96136608 1.5922238e+08 
   74800    287.55763 -0.0010586028            0    3427.7604   0.98128426 1.5967915e+08 
   74900    292.47706 -0.00011865294            0    3486.4023   0.99587541 1.6003144e+08 
   75000    284.73638 -5.0703018e-05            0    3394.1314   0.96768088 1.6033537e+08 
   75100    281.02051 -0.00011511143            0    3349.8373   0.95418846 1.6048054e+08 
   75200    282.06264 -0.00075292971            0    3362.2591    0.9581844 1.6040383e+08 
   75300    287.24284 -0.0030191384            0    3424.0061   0.97746158 1.6012787e+08 
   75400     288.9728 -0.0010796324            0    3444.6296   0.98574539 1.5973878e+08 
   75500    279.45026 -0.00025726772            0    3331.1193   0.95613147 1.592595e+08 
   75600    279.90797 -0.00024856954            0    3336.5754   0.96174122 1.5858989e+08 
   75700    285.84092 -0.00087495091            0     3407.297   0.98728481 1.5776119e+08 
   75800    286.94987 -0.0017747105            0    3420.5152   0.99650798 1.569073e+08 
   75900    277.70498 -0.010462303            0    3310.3049   0.96947476 1.5608516e+08 
   76000    278.87062 -0.0032299256            0    3324.2069   0.97891005 1.5523058e+08 
   76100    284.46011 -0.021998294            0    3390.8163    1.0038906 1.5439924e+08 
   76200    286.11667 -0.013617825            0    3410.5713    1.0143005 1.5370567e+08 
   76300    280.76324 -0.0022219185            0    3346.7684   0.99876658 1.5317713e+08 
   76400    276.09157 -0.00077424813            0    3291.0824   0.98501131 1.5273205e+08 
   76500    286.47747 -0.00017581524            0    3414.8856    1.0248258 1.523207e+08 
   76600    288.82958 -6.9995039e-05            0    3442.9235    1.0349771 1.5206506e+08 
   76700    282.20606 -4.5279552e-05            0    3363.9694    1.0117772 1.5198474e+08 
   76800    279.39574 -4.0521664e-05            0    3330.4696    1.0017915 1.5197108e+08 
   76900    283.79196 -5.5593118e-05            0    3382.8737    1.0175128 1.519773e+08 
   77000    288.83332 -0.00013200558            0    3442.9679    1.0350286 1.5205946e+08 
   77100    281.74865 -0.0004779614            0    3358.5165    1.0082803 1.522646e+08 
   77200    275.96152 -0.00024166019            0    3289.5326    0.9861688  1.52481e+08 
   77300    281.84367 -5.7000471e-05            0    3359.6496    1.0062097 1.5262944e+08 
   77400    285.83806 -0.00013316065            0    3407.2637    1.0194155 1.5278733e+08 
   77500    284.11709 -0.00069271773            0    3386.7487    1.0118213 1.5300719e+08 
   77600    278.07129 -0.00023260569            0    3314.6817   0.98870364 1.5325282e+08 
   77700    276.09729 -4.9199383e-05            0    3291.1513   0.98052949 1.5343344e+08 
   77800    286.67534 -4.5123328e-05            0    3417.2444    1.0173871 1.5354039e+08 
   77900    286.55402 -5.7872302e-05            0    3415.7981    1.0159031 1.536996e+08 
   78000    280.60292 -4.0955092e-05            0    3344.8596   0.99343123 1.5391216e+08 
   78100    279.44604 -2.534167e-05            0    3331.0693   0.98818144 1.540919e+08 
   78200    287.31502 -9.8692534e-05            0    3424.8694    1.0151356 1.5422429e+08 
   78300    289.50134 -0.0080618597            0     3450.923    1.0216101 1.5441195e+08 
   78400    284.73122 -0.00019498446            0    3394.0699    1.0030162 1.5468408e+08 
   78500    281.83066 -7.9961704e-05            0    3359.4945   0.99098455 1.5496724e+08 
   78600    281.60018 -0.0001179886            0     3356.747   0.98863674 1.5520821e+08 
   78700    285.99419 -0.00019010305            0    3409.1247    1.0028156 1.5540128e+08 
   78800    289.61279 -0.00066305139            0    3452.2589    1.0141569 1.5560763e+08 
   78900    280.77044 -0.00031394774            0    3346.8561   0.98158391 1.5586277e+08 
   79000    277.98512 -0.00017614888            0    3313.6545   0.97068862 1.5604868e+08 
   79100    283.26348 -9.9971918e-05            0    3376.5741   0.98872865 1.5611045e+08 
   79200     285.7531 -0.00010379471            0    3406.2509   0.99738435 1.5611582e+08 
   79300    283.44686 -8.3859194e-05            0      3378.76    0.9894162 1.5610297e+08 
   79400    279.82216 -9.2198845e-05            0    3335.5526   0.97716942 1.5603814e+08 
   79500    274.47504 -0.00038640846            0    3271.8133   0.95961577 1.5585613e+08 
   79600    279.88856 -0.0041078395            0    3336.3402   0.98086958 1.5548584e+08 
   79700     287.2598 -0.00054584509            0    3424.2108    1.0098564 1.5500067e+08 
   79800    285.27605 -0.00094584496            0    3400.5636    1.0059992 1.5452042e+08 
   79900    279.81965  -0.15039794            0    3335.3724   0.98973316 1.5403601e+08 
   80000    280.85457 -0.0054867885            0    3347.8539   0.99706012 1.5348876e+08 
   80100    288.52002 -0.00042127049            0     3439.233    1.0281427 1.5291178e+08 
   80200    294.77344 -0.00042179323            0    3513.7755    1.0536581 1.5244284e+08 
   80300    282.34876 -0.0042770041            0    3365.6662    1.0110743 1.5216673e+08 
   80400     280.0559 -0.0020368621            0    3338.3369    1.0042772 1.5195286e+08 
   80500    283.67894 -0.0004229844            0    3381.5262    1.0185839 1.5175698e+08 
   80600    287.11053 -0.0023153844            0    3422.4297    1.0317296 1.516355e+08 
   80700    283.03631 -0.00090993503            0    3373.8653    1.0170443 1.5164234e+08 
   80800    277.14304 -0.00069519245            0    3303.6162   0.99531218 1.5172702e+08 
   80900    282.05264 -0.00043767922            0    3362.1402    1.0123569 1.5181509e+08 
   81000    287.53155 -0.0019666133            0    3427.4487     1.030949 1.5197289e+08 
   81100    284.39615 -0.0014965985            0    3390.0743    1.0176241  1.52284e+08 
   81200    280.46987 -0.00033145921            0    3343.2733    1.0007328 1.527167e+08 
   81300    281.23521 -0.00036335353            0    3352.3963     1.000215 1.532127e+08 
   81400    288.62303 -0.00048268378            0    3440.4609    1.0227067 1.5377944e+08 
   81500    287.27371 -0.0015673284            0    3424.3756    1.0131731 1.5450061e+08 
   81600    279.41808 -0.00084760927            0    3330.7351   0.98016092 1.5533715e+08 
   81700    279.67528 -0.00029238753            0    3333.8016   0.97600641 1.5614204e+08 
   81800    283.40551 -0.00040668931            0    3378.2668   0.98448564 1.5686184e+08 
   81900    285.85688 -7.281057e-05            0     3407.488   0.98888972 1.5751406e+08 
   82000    283.27478 -4.3274505e-05            0    3376.7088   0.97629375 1.5810512e+08 
   82100    275.67033 -6.2871477e-05            0    3286.0617   0.94732036 1.5856659e+08 
   82200    278.91135 -0.00010725356            0    3324.6956    0.9571461 1.587839e+08 
   82300    286.50409 -0.001073278            0     3415.202   0.98309783 1.5880064e+08 
   82400    284.56447 -0.0028871374            0    3392.0794   0.97691888 1.5872291e+08 
   82500    280.41278 -0.00013897755            0    3342.5929   0.96384576 1.5852902e+08 
   82600    280.67888 -8.4522501e-05            0     3345.765   0.96699703 1.5816235e+08 
   82700    289.83891 -0.00011222913            0    3454.9548    1.0018352 1.5764452e+08 
   82800    289.54262 -6.8656254e-05            0    3451.4231    1.0041965 1.5711307e+08 
   82900    282.81027 -4.7845197e-05            0    3371.1718   0.98413353 1.5658844e+08 
   83000    282.29049 -6.5933762e-05            0    3364.9758   0.98604128 1.5599823e+08 
   83100    283.58717 -6.0205853e-05            0    3380.4325    0.9946978 1.5535096e+08 
   83200    284.44757 -4.828021e-05            0    3390.6887    1.0019557 1.5469357e+08 
   83300    281.24455 -4.2556231e-05            0    3352.5079   0.99472973 1.5406272e+08 
   83400    278.43562 -2.2823609e-05            0    3319.0247   0.98880093 1.5343854e+08 
   83500    284.23739 -1.36101e-05            0    3388.1834    1.0135302 1.5281397e+08 
   83600    289.74041 -1.566872e-05            0    3453.7808     1.036687 1.5229301e+08 
   83700    283.63943 -1.8794265e-05            0    3381.0555    1.0171293 1.519529e+08 
   83800    281.09076 -1.527165e-05            0    3350.6747    1.0095454 1.5171875e+08 
   83900     283.0108 -2.1873167e-05            0    3373.5622    1.0175958 1.5154661e+08 
   84000    285.19719 -5.4787888e-05            0    3399.6245     1.026031 1.5146186e+08 
   84100    283.82702 -0.0001477937            0    3383.2915    1.0209051  1.51491e+08 
   84200    277.34158 -0.00046385824            0    3305.9831   0.99684288 1.516026e+08 
   84300    279.18512 -0.00045803197            0    3327.9586    1.0027535 1.5171079e+08 
   84400    287.05149 -0.00012573296            0     3421.728     1.030113 1.5184254e+08 
   84500    285.24134 -4.7703055e-05            0    3400.1507    1.0219255 1.5209389e+08 
   84600    281.13711 -4.0181564e-05            0    3351.2272    1.0049229 1.5244176e+08 
   84700    280.97173 -4.2622755e-05            0    3349.2558    1.0018473 1.528198e+08 
   84800     290.1707 -9.1330125e-05            0    3458.9099    1.0319243 1.532231e+08 
   84900    289.95938 -0.0017105522            0    3456.3893    1.0275911 1.5375695e+08 
   85000    282.96499 -0.00071799697            0    3373.0154   0.99856514 1.5440971e+08 
   85100    280.87859 -0.00050610907            0    3348.1452   0.98707024 1.5505613e+08 
   85200    283.31257 -0.0051825803            0    3377.1541   0.99192139 1.5563424e+08 
   85300    288.20145 -0.00019809876            0    3435.4358    1.0056399 1.5616084e+08 
   85400    286.90845 -1.8630816e-05            0    3420.0231    0.9977702 1.5668642e+08 
   85500    276.99975 -3.1330952e-05            0    3301.9088   0.96040563 1.5716044e+08 
   85600    279.63436 -7.0155579e-05            0     3333.314   0.96777079 1.5744778e+08 
   85700    285.63329 -0.00024282351            0    3404.8227   0.98771672 1.5757775e+08 
   85800    285.09989 -0.0016027072            0     3398.463   0.98550461 1.5763633e+08 
   85900    281.54853 -0.0089531222            0    3356.1226   0.97331594 1.5762116e+08 
   86000    279.65141 -0.0073471642            0    3333.5099   0.96761107 1.5748234e+08 
   86100    284.21634 -0.021916509            0    3387.9105   0.98515993 1.5719997e+08 
   86200    288.84928 -0.0022909326            0     3443.156    1.0034769 1.5684894e+08 
   86300    283.31588 -0.00056264106            0    3377.1982   0.98644707 1.5650041e+08 
   86400    279.26429 -0.00038448285            0    3328.9024   0.97488762 1.560915e+08 
   86500    282.79882 -0.00090738674            0    3371.0344   0.99050293 1.5557508e+08 
   86600    288.21324 -0.0010485428            0    3435.5755    1.0130825 1.5501983e+08 
   86700    284.88822 -0.00078838825            0    3395.9407    1.0046251 1.5452143e+08 
   86800      277.313 -0.00027116079            0    3305.6427   0.98094897 1.5404311e+08 
   86900    281.97439 -0.00019825702            0    3361.2077    1.0009434 1.5350363e+08 
   87000    287.66128 -0.0003140029            0    3428.9967    1.0246029 1.5298339e+08 
   87100    284.57724 -0.0004736303            0     3392.234    1.0163233 1.5257616e+08 
   87200    278.83276 -0.00065583971            0    3323.7582   0.99795124 1.5224841e+08 
   87300    280.68141 -0.00058977624            0    3345.7947     1.006658 1.5193227e+08 
   87400    283.30367 -0.00053630378            0    3377.0527    1.0179366 1.5165258e+08 
   87500       284.49 -0.0011273886            0    3391.1935    1.0235301 1.5145532e+08 
   87600    282.59502 -0.0053155037            0    3368.6006    1.0173448 1.513606e+08 
   87700    277.14036 -0.00087062879            0    3303.5841   0.99786285 1.513377e+08 
   87800    279.43474 -0.00015784741            0    3330.9344    1.0062614 1.5131712e+08 
   87900    287.54566 -0.00094521752            0    3427.6179    1.0353332 1.5133692e+08 
   88000    285.29507 -0.017927264            0    3400.7733    1.0260895 1.5150283e+08 
   88100    280.49755 -0.016394362            0    3343.5872    1.0069038 1.5179353e+08 
   88200    280.85237 -0.0005487338            0    3347.8326    1.0058923 1.5214055e+08 
   88300    289.83135 -0.00083473823            0     3454.864    1.0352849 1.5254701e+08 
   88400    291.22971 -0.00056165919            0    3471.5332    1.0363373 1.531274e+08 
   88500    284.72681 -0.018107225            0    3393.9993    1.0081191 1.5389629e+08 
   88600    280.35417  -0.12525433            0    3341.7691   0.98722331 1.5472585e+08 
   88700    281.24641 -0.0015771318            0    3352.5286   0.98552283 1.5550281e+08 
   88800    287.17889 -0.00017570397            0    3423.2467    1.0018055 1.5620236e+08 
   88900    286.45557 -5.2682392e-05            0    3414.6247   0.99502408 1.5687084e+08 
   89000    276.19564 -3.7752061e-05            0    3292.3236   0.95577361 1.5746365e+08 
[...]
  190700    282.50184 -0.0013835368            0    3367.4938    1.0083457 1.5266162e+08 
  190800    279.54828 -0.00024113447            0    3332.2877   0.99776488 1.5266767e+08 
  190900    283.09927 -6.4376448e-05            0    3374.6167    1.0104046 1.526729e+08 
  191000    286.49058 -5.5130968e-05            0    3415.0419    1.0221727 1.5272305e+08 
  191100    281.98685 -4.2394212e-05            0    3361.3563    1.0052404 1.5285423e+08 
  191200    274.26021 -4.2676313e-05            0    3269.2528   0.97687076 1.5298337e+08 
  191300    281.46738 -0.00010163829            0    3355.1641    1.0022895 1.5302183e+08 
  191400    285.70771 -0.00060073252            0    3405.7094    1.0171223 1.530619e+08 
  191500    284.07778   -1.0000818            0    3385.2807    1.0106668 1.5316686e+08 
  191600    279.21851 -0.00042937736            0    3328.3566   0.99244018 1.5330568e+08 
  191700    278.27995 -0.0071411395            0     3317.162   0.98844409 1.5340714e+08 
  191800    287.73011 -0.00092423833            0    3429.8166    1.0215824 1.5347234e+08 
  191900    287.23133 -6.5639457e-05            0    3423.8719    1.0188678 1.5361461e+08 
  192000    280.57661 -5.6001307e-05            0     3344.546    0.9938858 1.5382734e+08 
  192100    280.07722 -9.599006e-05            0     3338.593   0.99090029 1.5401618e+08 
  192200    283.98581 -0.00028836928            0    3385.1843    1.0037493 1.5416644e+08 
  192300    284.87107 -0.0013359199            0    3395.7358     1.005827 1.5432743e+08 
  192400    283.49418 -0.0073734919            0    3379.3168   0.99976304 1.5451221e+08 
  192500    282.27473 -0.0084725539            0    3364.7795   0.99427167 1.5469711e+08 
  192600    282.64188 -0.0015209764            0     3369.163   0.99452403 1.5485998e+08 
  192700    286.63429 -0.00021668787            0    3416.7548    1.0076204 1.5500641e+08 
  192800    288.10058 -4.585196e-05            0    3434.2336     1.011575 1.551903e+08 
  192900    280.00315 -2.0004583e-05            0    3337.7102   0.98168845 1.5542031e+08 
  193000     278.4754 -3.8615525e-05            0     3319.499   0.97529053 1.5558631e+08 
  193100     283.9759 -0.0001973554            0    3385.0662   0.99412582 1.556534e+08 
  193200    285.29426 -7.2012254e-05            0    3400.7816   0.99851263 1.5568903e+08 
  193300    283.45433 -2.2701248e-05            0    3378.8492   0.99189507 1.5571696e+08 
  193400    282.04828 -3.0638622e-05            0    3362.0887   0.98702147 1.5570961e+08 
  193500    282.84077 -0.00012698323            0    3371.5352   0.99022463  1.55642e+08 
  193600     288.8969 -0.00060255615            0    3443.7254    1.0121581 1.5552953e+08 
  193700    287.97735 -0.00040434609            0    3432.7643     1.009431 1.5545335e+08 
  193800    279.96371 -0.001078396            0     3337.239   0.98165533 1.5540352e+08 
  193900    280.46748 -0.0077230383            0    3343.2374   0.98425028 1.5527178e+08 
  194000    285.46029  -0.14421083            0    3402.6165     1.003089 1.5504995e+08 
  194100    286.65027  -0.05864732            0    3416.8869    1.0089345 1.5480529e+08 
  194200    276.08341 -0.028124902            0    3290.9577   0.97339025 1.5454708e+08 
  194300    277.84175  -0.00896734            0    3311.9368   0.98216711 1.5414419e+08 
  194400    285.19259 -0.0018884448            0    3399.5678    1.0117597 1.5359557e+08 
  194500    286.06707 -0.00074734454            0    3409.9929    1.0187464 1.5301009e+08 
  194600    281.56405 -0.00073483712            0    3356.3157    1.0065579 1.5242518e+08 
  194700     278.9803 -0.0020928999            0    3325.5155    1.0014274 1.5180002e+08 
  194800    287.32317 -0.0012512432            0    3424.9655    1.0359922 1.5112358e+08 
  194900    291.54588 -0.00067623914            0    3475.3019    1.0553122 1.5053734e+08 
  195000      283.354  -0.12225821            0    3377.5309    1.0283049 1.5013445e+08 
  195100    280.66987 -0.0019714985            0    3345.6556     1.020688 1.4983752e+08 
  195200    282.95749 -0.00010915082            0    3372.9266    1.0305422 1.4961459e+08 
  195300    287.65825 -9.5251738e-05            0    3428.9608    1.0483785 1.4951241e+08 
  195400    286.81301 -0.00020831034            0    3418.8852    1.0445874 1.496141e+08 
  195500    277.51135 -0.00097847771            0    3308.0063    1.0086536 1.4991907e+08 
  195600    279.32558 -0.0016906441            0    3329.6317     1.012503 1.5032537e+08 
  195700    284.96112  -0.14809642            0    3396.6624    1.0292039  1.50851e+08 
  195800    284.40926 -0.0059223901            0    3390.2263    1.0224558 1.5157078e+08 
  195900    281.72166 -0.011080807            0    3358.1842    1.0068203 1.5246935e+08 
  196000    281.87484 -0.018736192            0    3360.0025    1.0008308 1.5346416e+08 
  196100     290.2892 -0.0028875977            0    3460.3197     1.023804 1.5450108e+08 
  196200     286.3635 -0.00073181794            0    3413.5265    1.0028667 1.5559397e+08 
  196300    279.29252 -0.00043701051            0    3329.2388   0.97178564 1.5660557e+08 
  196400    280.48937 -0.00026657574            0    3343.5058   0.97115025 1.573796e+08 
  196500    284.23109 -0.00037057767            0    3388.1079   0.98074454 1.5791889e+08 
  196600    284.23062 -0.0017046131            0     3388.101   0.97846401 1.5828651e+08 
  196700    282.96705 -0.0013505989            0    3373.0393   0.97279094 1.5850187e+08 
  196800     282.5523 -0.0010543058            0    3368.0956   0.97097629 1.5856538e+08 
  196900    283.82339 -0.00015631111            0    3383.2483   0.97579964 1.5849152e+08 
  197000    288.57176 -0.0011385566            0     3439.849   0.99316623 1.5832519e+08 
  197100    285.89304   -0.0120839            0    3407.9072   0.98510249 1.5813796e+08 
  197200    279.28629 -0.011692801            0    3329.1533   0.96380178 1.5789772e+08 
  197300    280.92753   -0.1750078            0     3348.554   0.97158945 1.5753071e+08 
  197400    287.27928 -0.063129303            0    3424.3804   0.99648308 1.5708304e+08 
  197500    286.85506 -0.0031477796            0    3419.3836    0.9977477 1.5666037e+08 
  197600    276.27878 -0.00038118397            0    3293.3144   0.96349727 1.5624835e+08 
  197700    280.63216 -0.00014555778            0     3345.208   0.98187115 1.5574046e+08 
  197800    286.70763 -0.00013704025            0    3417.6292    1.0065397 1.5521255e+08 
  197900    285.32737 -0.0014368751            0    3401.1748    1.0045879 1.5476527e+08 
  198000    279.19041 -0.0069841295            0    3328.0151   0.98541234 1.5438259e+08 
  198100    279.82797 -0.00070677759            0    3335.6212   0.99018278 1.5399053e+08 
  198200    291.67913 -0.00052879692            0    3476.8903    1.0346246 1.5361758e+08 
  198300    290.96856 -0.00031729328            0    3468.4204    1.0334883 1.5341187e+08 
  198400    283.30214 -0.00019328195            0    3377.0348     1.006565 1.5336509e+08 
  198500    279.49209 -9.5837997e-05            0    3331.6181   0.99307918 1.5335719e+08 
  198600    282.58368 -7.4052608e-05            0    3368.4706    1.0042428 1.5332991e+08 
  198700    288.01821 -6.4228104e-05            0    3433.2517    1.0235624 1.5332895e+08 
  198800    284.45638 -8.9396687e-05            0    3390.7937    1.0102951 1.534214e+08 
  198900    275.93405 -0.0017965984            0    3289.2036   0.97925091 1.5354269e+08 
  199000    279.95334  -0.44381481            0    3336.6726   0.99290035 1.5358554e+08 
  199100    284.50832 -0.0068708193            0    3391.4061    1.0093157 1.535974e+08 
  199200    284.98656 -0.00044524084            0    3397.1133    1.0106947 1.5364653e+08 
  199300    280.83032 -8.03236e-05            0    3347.5702   0.99536077 1.5373828e+08 
  199400    274.54017 -3.1719886e-05            0      3272.59   0.97264879 1.5380427e+08 
  199500    281.56617 -0.0021850487            0    3356.3396   0.99779251 1.5376516e+08 
  199600    287.08465 -0.0001025869            0    3422.1234    1.0177171 1.5370975e+08 
  199700    283.52601 -0.00023296684            0    3379.7034    1.0050016 1.5372504e+08 
  199800    279.27767 -0.00052722671            0    3329.0618   0.98968916 1.5376439e+08 
  199900      282.268 -0.00059063222            0    3364.7072    1.0002611 1.5376822e+08 
  200000    290.89006 -0.00035260189            0    3467.4846    1.0306873 1.5378726e+08 
Loop time of 129.479 on 12 procs for 200000 steps with 4000 atoms

Performance: 133.458 ns/day, 0.180 hours/ns, 1544.647 timesteps/s
99.9% CPU use with 12 MPI tasks x no OpenMP threads

MPI task timing breakdown:
Section |  min time  |  avg time  |  max time  |%varavg| %total
---------------------------------------------------------------
Pair    | 2.5156     | 2.5922     | 2.6566     |   2.3 |  2.00
Neigh   | 96.562     | 99.875     | 104.56     |  31.2 | 77.14
Comm    | 11.807     | 16.726     | 20.181     |  79.4 | 12.92
Output  | 0.063919   | 0.067999   | 0.10648    |   4.5 |  0.05
Modify  | 8.3041     | 8.5941     | 8.8128     |   5.2 |  6.64
Other   |            | 1.624      |            |       |  1.25

Nlocal:    333.333 ave 354 max 317 min
Histogram: 3 0 4 0 1 0 0 0 2 2
Nghost:    56.25 ave 69 max 48 min
Histogram: 2 3 1 1 1 1 0 2 0 1
Neighs:    2.83333 ave 5 max 1 min
Histogram: 3 0 1 0 0 4 0 3 0 1

Total # of neighbors = 34
Ave neighs/atom = 0.0085
Neighbor list builds = 200000
Dangerous builds not checked
WARNING: One or more atoms are time integrated more than once (../modify.cpp:266)
Setting up Verlet run ...
  Unit style  : real
  Current step: 0
  Time step   : 1
Memory usage per processor = 5.96901 Mbytes
Step Temp E_pair E_mol TotEng Press Volume 
       0    290.89006 -0.00035260189            0    3467.4846    1.0306873 1.5378726e+08 
     100     281.3835 -0.00058833526            0    3354.1637   0.99577231 1.5397737e+08 
     200    279.89281 -4.4491577e-05            0    3336.3948   0.98921251 1.5417739e+08 
     300     284.9487 -0.0002094728            0    3396.6622     1.006229 1.5430795e+08 
     400    283.23871 -0.00057324169            0    3376.2783   0.99902198 1.5448841e+08 
     500    281.04737 -9.793069e-05            0    3350.1575   0.99008119 1.5467753e+08 
     600    289.35191 -6.3810614e-05            0    3449.1497    1.0183879 1.5482164e+08 
     700    286.42849 -0.00021632143            0    3414.3017    1.0061239 1.5512551e+08 
     800    277.31359 -0.0091538675            0    3305.6408   0.97163543 1.5551875e+08 
     900     288.2913 -0.00046400062            0    3436.5066    1.0086145 1.557488e+08 
    1000     285.8937 -0.035220138            0    3407.8919   0.99829128 1.5604596e+08 
    1100    277.81408 -0.0065711809            0    3311.6093   0.96816206 1.5635874e+08 
    1200    284.49869 -0.00034948531            0    3391.2979    0.9908922 1.5644882e+08 
    1300    284.40408 -0.00014964125            0    3390.1703   0.99068675 1.5642925e+08 
    1400     280.0498 -0.0012816664            0     3338.265   0.97636715 1.5629323e+08 
    1500    280.67097 -0.001678355            0    3345.6691   0.98104955 1.5589223e+08 
    1600    284.73145 -0.0041491541            0    3394.0686   0.99951077 1.5522617e+08 
    1700     280.8815 -0.00090154747            0    3348.1795   0.99126658 1.5440128e+08 
    1800    283.66555 -0.00054026923            0    3381.3664    1.0076649 1.5339415e+08 
    1900     283.5687 -0.011167638            0    3380.2013    1.0141885 1.5235401e+08 
    2000    285.30936 -0.00029985662            0    3400.9613    1.0268825 1.5139576e+08 
    2100    285.75114 -6.3399984e-05            0    3406.2276    1.0333521 1.5068089e+08 
    2200    280.27494 -0.00015366537            0    3340.9499    1.0159312 1.5032751e+08 
    2300    284.11609 -5.2505494e-05            0    3386.7375    1.0302614 1.5026815e+08 
    2400    287.63525 -0.00013915356            0    3428.6866    1.0404313 1.5064239e+08 
    2500    276.90052 -0.00050313773            0    3300.7256   0.99585463 1.5151171e+08 
    2600    285.79441 -0.0018435335            0    3406.7416    1.0205836 1.5258892e+08 
    2700    283.90937 -0.00031468782            0     3384.273    1.0053674 1.5387687e+08 
    2800    276.96139 -0.00019461427            0    3301.4514   0.97290713 1.5511948e+08 
    2900    285.48082 -0.0022468649            0    3403.0032   0.99724213 1.5598902e+08 
    3000     285.5415 -0.00071779094            0     3403.728   0.99355226 1.5660182e+08 
    3100    278.92019 -0.0060983139            0     3324.795   0.96837436 1.5694694e+08 
    3200    285.34874 -0.0060392615            0     3401.425   0.99098836 1.5690026e+08 
    3300    290.20221 -0.00037814256            0    3459.2852    1.0092106 1.5668858e+08 
    3400    274.75528 -0.00028546623            0    3275.1539   0.95710743 1.5642415e+08 
    3500    282.11025 -0.00023871285            0    3362.8271   0.98661784 1.558075e+08 
    3600    290.12612 -0.0062309659            0    3458.3724    1.0193832 1.5508349e+08 
    3700    277.04776 -0.00014670031            0     3302.481   0.97717175 1.5449066e+08 
    3800    277.70053 -7.8191046e-05            0    3310.2622   0.98414234 1.5375786e+08 
    3900    293.22353 -0.00028978307            0    3495.3003    1.0444954 1.5297157e+08 
    4000    285.59886 -0.00088350192            0    3404.4116    1.0202048 1.5254126e+08 
    4100    279.96096 -0.015165658            0    3337.1921    1.0015155 1.5231844e+08 
    4200    284.60508 -0.00057723904            0    3392.5658    1.0193765 1.5213403e+08 
    4300    285.01087 -0.00020186545            0    3397.4033    1.0210647 1.520991e+08 
    4400    274.67636 -0.0001715224            0    3274.2133   0.98344116 1.5219185e+08 
    4500    283.85149 -0.00027817954            0    3383.5832    1.0164078 1.5217442e+08 
    4600    289.69491 -0.00092998166            0    3453.2375    1.0367051 1.5226631e+08 
    4700    276.58496 -3.7248585e-05            0    3296.9645   0.98765549 1.5259547e+08 
    4800    282.49446 -5.4145851e-05            0    3367.4072    1.0071147 1.528444e+08 
    4900    291.79532 -0.00012502781            0    3478.2757    1.0382302 1.5314512e+08 
    5000    277.51875  -0.31625568            0    3307.7793   0.98366316 1.5369215e+08 
    5100    278.42345 -0.00064880031            0    3318.8791   0.98436966 1.5412245e+08 
    5200    287.70992 -0.00074914165            0    3429.5761    1.0152963 1.5441173e+08 
    5300    281.24936 -0.00012210583            0    3352.5652   0.99013184 1.5478078e+08 
    5400    278.07088 -0.00032723674            0    3314.6767   0.97718772 1.5505863e+08 
    5500    292.84793 -0.00059897391            0    3490.8226    1.0282498 1.5518933e+08 
    5600    283.09564 -0.022407674            0     3374.551    0.9920783 1.5548811e+08 
    5700    278.87103 -0.0006892712            0    3324.2143   0.97568132 1.5574485e+08 
    5800    286.76089 -0.00018494071            0     3418.264    1.0028412 1.5581391e+08 
    5900    282.68748 -0.00030545454            0    3369.7078   0.98821518 1.5587393e+08 
    6000    274.42298 -0.00023649052            0    3271.1928   0.95979666 1.5579722e+08 
    6100    288.96061 -0.00010304555            0    3444.4853    1.0130325 1.5542961e+08 
    6200    278.75698 -0.000350404            0    3322.8552   0.97945947 1.5508068e+08 
    6300    279.53564 -9.7375021e-05            0    3332.1373   0.98556432 1.5455062e+08 
    6400    288.68205 -0.0025950351            0    3441.1623    1.0224407 1.5385061e+08 
    6500    279.93362 -0.00022375041            0    3336.8812   0.99544213 1.5323484e+08 
    6600    280.93353 -0.011611824            0     3348.789     1.003485 1.5254808e+08 
    6700    290.68941  -0.01047442            0    3465.0827     1.043037 1.5186026e+08 
    6800     277.5764 -0.00041908182            0    3308.7822   0.99893299 1.5141349e+08 
    6900     288.4198 -6.5533587e-05            0    3438.0387    1.0407247 1.510107e+08 
    7000    285.04977 -0.00037747527            0    3397.8669    1.0294318 1.5088343e+08 
    7100    277.79393  -0.36998621            0    3311.0058    1.0020722 1.5101269e+08 
    7200    287.54612  -0.16039107            0     3427.464    1.0359282 1.5123005e+08 
    7300    284.53536 -5.2537497e-05            0    3391.7352     1.021683 1.5175346e+08 
    7400    275.14488 -0.00012673837            0    3279.7983   0.98320398 1.5248823e+08 
    7500    289.65391 -0.00048386103            0    3452.7493    1.0302365 1.5320074e+08 
    7600    283.73065 -0.0058131604            0    3382.1372    1.0030734 1.5413096e+08 
    7700    279.36393 -0.0018097296            0    3330.0888   0.98140746 1.5510966e+08 
    7800    286.48092 -0.0013434091            0    3414.9255    1.0010511 1.5593999e+08 
    7900    285.77873 -4.6016914e-05            0    3406.5565   0.99357311 1.5672873e+08 
    8000    273.04912 -0.00029519509            0     3254.816   0.94544312 1.5737068e+08 
    8100    289.48778 -0.00018737859            0    3450.7693    1.0012268 1.5754922e+08 
    8200    287.82274 -0.0017043802            0    3430.9201   0.99503726 1.5761722e+08 
    8300    278.95103 -0.00054437155            0     3325.168   0.96453309 1.5759019e+08 
    8400    284.82853 -8.2091368e-05            0    3395.2299   0.98708555 1.5723428e+08 
    8500     286.9174 -5.8468496e-05            0    3420.1298   0.99763543 1.5671247e+08 
    8600    272.52727 -0.00053341107            0    3248.5953   0.95146959 1.5607502e+08 
    8700    284.79219 -2.1652729e-05            0    3394.7967    1.0008188 1.5505692e+08 
    8800    287.89039 -4.9447594e-05            0     3431.728    1.0186434  1.54001e+08 
    8900    279.98329 -0.00031324644            0    3337.4731   0.99644165 1.5310828e+08 
    9000    283.07041 -0.0004490621            0    3374.2723     1.013079 1.5225429e+08 
    9100    289.19574 -8.357106e-05            0    3447.2882      1.03964 1.5157495e+08 
    9200      275.943 -0.00017012095            0     3289.312   0.99431084 1.5122225e+08 
    9300    281.09302 -0.00081725607            0    3350.7009    1.0148606 1.5092524e+08 
    9400    289.12836 -0.00069138516            0    3446.4844    1.0447375 1.5080017e+08 
    9500    279.44732 -0.00014674285            0    3331.0844    1.0081601 1.5103895e+08 
    9600    281.34579 -0.00035169816            0    3353.7144    1.0125155 1.514109e+08 
    9700    290.50692 -0.015219661            0    3462.9026    1.0418383 1.5193891e+08 
    9800    283.16014 -0.0010760372            0    3375.3412    1.0097859 1.5279915e+08 
    9900    275.73593  -0.18435302            0    3286.6594   0.97701742 1.5375887e+08 
   10000    280.05272 -0.0079084142            0    3338.2931   0.98745489 1.5453897e+08 
Loop time of 8.13278 on 12 procs for 10000 steps with 4000 atoms

Performance: 106.237 ns/day, 0.226 hours/ns, 1229.592 timesteps/s
99.9% CPU use with 12 MPI tasks x no OpenMP threads

MPI task timing breakdown:
Section |  min time  |  avg time  |  max time  |%varavg| %total
---------------------------------------------------------------
Pair    | 0.047776   | 0.050701   | 0.0548     |   0.9 |  0.62
Neigh   | 5.643      | 6.1207     | 6.618      |  16.3 | 75.26
Comm    | 0.44415    | 0.94812    | 1.4482     |  42.3 | 11.66
Output  | 0.10607    | 0.10625    | 0.10802    |   0.2 |  1.31
Modify  | 0.8021     | 0.82663    | 0.84545    |   1.6 | 10.16
Other   |            | 0.08034    |            |       |  0.99

Nlocal:    333.333 ave 355 max 291 min
Histogram: 1 0 1 0 0 2 1 1 4 2
Nghost:    54.4167 ave 67 max 36 min
Histogram: 1 0 1 0 0 3 3 2 0 2
Neighs:    4.16667 ave 7 max 2 min
Histogram: 3 0 3 0 1 0 1 0 2 2

Total # of neighbors = 50
Ave neighs/atom = 0.0125
Neighbor list builds = 10000
Dangerous builds not checked
Total wall time: 0:02:17
