LAMMPS (16 Feb 2016)
Lattice spacing in x,y,z = 3 3 3
Created orthogonal box = (0 0 0) to (30 30 30)
  1 by 1 by 2 MPI processor grid
Created 4000 atoms
Neighbor list info ...
  1 neighbor list requests
  update every 1 steps, delay 0 steps, check no
  max neighbors/atom: 2000, page size: 100000
  master list distance cutoff = 5.73
  ghost atom cutoff = 5.73
  binsize = 2.865, bins = 11 11 11
Setting up Verlet run ...
  Unit style  : real
  Current step: 0
  Time step   : 1
Memory usage per processor = 2.18281 Mbytes
Step Temp E_pair E_mol TotEng Press Volume 
       0       283.13   -0.7732371            0    3374.2098    5710.0785        27000 
     100    281.15861   -4.0572742            0    3347.4263    5571.8538    27397.271 
     200    286.74137   -70.422704            0    3347.6088    5397.0095    28260.014 
     300    288.00764   -82.735202            0    3350.3906    5330.5801    29057.664 
     400    279.57924   -87.628763            0    3245.0283     4986.054    29895.072 
     500    272.84246     -90.0663            0    3162.2866    4706.2666     30666.86 
     600    281.36013   -101.03458            0    3252.8512    4715.7125    31394.939 
     700    282.81513   -100.39405            0    3270.8356    4577.8073    32127.773 
     800     284.2928   -103.31058            0    3285.5334    4549.8208    32864.561 
     900    283.81011    -92.90913            0     3290.181    4455.7816    33608.234 
    1000    283.04295   -74.390233            0    3299.5552     4364.725    34358.287 
    1100    285.95296    -84.30298            0    3324.3305    4308.4762    35118.023 
    1200    285.94564   -85.635902            0    3322.9103    4156.8645    35889.757 
    1300    288.78235   -89.032077            0    3353.3285    4161.6106    36671.298 
    1400    285.58367   -85.309432            0     3318.922    4026.6584      37467.3 
    1500    277.09962   -82.951046            0    3220.1484    3816.4209    38266.654 
    1600    279.15558   -86.159508            0    3241.4474    3822.6144    39064.112 
    1700    283.25283    -91.32193            0    3285.1253    3782.4321    39878.817 
    1800    281.32907   -81.266245            0    3272.2492    3699.3541    40712.583 
    1900    283.08547   -82.651681            0    3291.8005    3612.1431     41557.22 
    2000    284.47617      -88.609            0    3302.4208    3571.7966    42418.021 
    2100    282.51964   -80.488096            0    3287.2193    3451.2969    43293.312 
    2200    289.33872   -90.687902            0    3358.3047    3455.2942    44181.154 
    2300     286.8716   -83.875257            0    3335.7086    3339.5928    45094.653 
    2400    279.42855   -88.883936            0    3241.9769    3250.4155    46015.436 
    2500    279.52408   -90.722507            0    3241.2771    3179.9678     46935.91 
    2600    284.13359   -85.010292            0    3301.9359    3116.0448     47876.12 
    2700    281.21722   -82.156604            0    3270.0256    3003.5785     48838.19 
    2800    281.70763   -85.871469            0    3272.1565    3004.3106    49810.113 
    2900    285.26141   -92.592616            0    3307.7974    3003.9527    50801.286 
    3000    283.36607   -83.953009            0     3293.844    2907.9952    51814.612 
    3100    281.94689   -75.131287            0    3285.7488    2846.7438    52841.339 
    3200    288.90141   -66.257134            0    3377.5226    2886.5023    53886.924 
    3300    285.15396   -72.060656            0    3327.0485    2760.2395     54963.58 
    3400     278.5207   -70.872192            0    3249.1668    2623.5265    56047.773 
    3500    279.88868   -73.203518            0    3263.1422    2607.1464    57133.905 
    3600    283.30582   -72.894621            0    3304.1842    2606.2348    58242.798 
    3700    281.14632   -67.904686            0    3283.4324    2527.9241    59378.523 
    3800    282.12188   -66.512711            0    3296.4532    2517.8913    60531.427 
    3900    285.00329   -72.986863            0    3324.3263    2463.4053    61706.537 
    4000    282.52397   -61.812666            0    3305.9464    2396.2183    62907.505 
    4100    281.06214   -65.581606            0    3284.7521     2351.559    64122.227 
    4200    279.54187   -57.384325            0    3274.8273    2286.7635    65352.474 
    4300    281.26407   -63.898832            0    3288.8419     2276.065    66601.815 
    4400    283.33391   -61.507728            0     3315.906    2255.1882    67878.901 
    4500    283.90129   -67.564253            0    3316.6127    2184.8855    69184.226 
    4600    283.44849   -71.337526            0     3307.442    2149.0922     70508.14 
    4700    287.33377   -53.667437            0    3371.4256    2143.0413    71855.985 
    4800    288.28884   -63.226615            0    3373.2511    2118.5246    73243.419 
    4900    280.55987   -64.238602            0    3280.1078    2037.8185    74648.566 
    5000    278.09781   -58.718179            0    3256.2799    1963.7224    76053.406 
    5100    280.85481   -65.541666            0    3282.3205    1926.9999    77478.638 
    5200    280.39225   -57.535362            0     3284.813    1888.0569    78938.309 
    5300     283.0082   -59.407957            0    3314.1232    1868.4501    80424.394 
    5400    283.69463   -56.293036            0    3325.4205    1856.7433    81945.937 
    5500    282.36078   -52.135218            0    3313.6785      1815.85     83494.18 
    5600    285.12339   -52.751759            0    3345.9931    1794.1789      85064.7 
    5700    290.12906   -52.476929            0    3405.9367    1792.6516    86678.526 
    5800    283.62669   -53.876631            0    3327.0271    1716.7416    88328.156 
    5900    279.16412   -50.371068            0    3277.3376    1661.3165    89978.578 
    6000    280.79863   -46.232558            0      3300.96    1643.1872    91643.738 
    6100    282.13049    -46.34042            0    3316.7282    1618.8198    93348.177 
    6200    280.92956   -45.441162            0    3303.3121    1592.7749    95087.843 
    6300     282.0741   -45.415248            0    3316.9812    1581.0726    96855.723 
    6400     283.5636    -48.73174            0    3331.4199    1551.7241     98657.38 
    6500    282.33919   -53.066433            0      3312.49    1516.4314    100493.01 
    6600    280.51409   -47.969615            0    3295.8311    1466.9839    102353.81 
    6700    281.53893   -49.443661            0    3306.5734    1464.9861     104240.3 
    6800    282.23603   -48.140255            0    3316.1865    1426.9896    106165.45 
    6900    281.95083   -49.574368            0    3311.3527    1398.8258    108127.56 
    7000    280.97326   -43.445073            0     3305.829    1390.0715    110120.28 
    7100    280.86863   -43.541261            0    3304.4857    1351.9952    112140.87 
    7200    281.08642   -42.679078            0     3307.944    1328.4423     114197.6 
    7300    281.97075   -42.476944            0    3318.6875    1294.2994    116292.39 
    7400    282.11365   -38.465082            0    3324.4028    1280.8681    118427.38 
    7500    281.78318   -39.869776            0    3319.0588    1276.4478    120601.41 
    7600    280.84298   -38.473218            0    3309.2479    1222.6091    122809.04 
    7700    281.05334    -39.83232            0    3310.3963    1208.3683     125051.3 
    7800    282.08971   -36.908792            0    3325.6737    1206.2474    127331.57 
    7900     282.1944   -36.268374            0    3327.5621    1172.1422    129657.47 
    8000    281.30638   -39.855478            0    3313.3896    1146.7144    132022.51 
    8100    280.95305   -37.427339            0    3311.6058    1117.3053    134422.86 
    8200      281.539   -35.609002            0    3320.4089    1114.9169    136865.27 
    8300    281.83465   -41.936463            0    3317.6057    1086.4913     139351.7 
    8400    280.97187   -40.987352            0    3308.2703    1064.2497    141875.17 
    8500      281.168   -39.728275            0    3311.8672    1041.7417    144439.65 
    8600    282.01103   -40.388453            0    3321.2561    1035.5514    147052.93 
    8700    281.18864   -36.801508            0    3315.0401    1011.2807    149713.54 
    8800    280.70457   -33.589696            0    3312.4816    990.11374    152415.12 
    8900     282.2449   -43.917605            0    3320.5148    979.80777    155161.01 
    9000    281.63399   -36.523534            0    3320.6266    965.75874    157958.42 
    9100    281.07705   -32.336748            0    3318.1745    938.31036    160802.98 
    9200    280.95751   -32.202905            0    3316.8835    922.93499    163692.73 
    9300    281.29728   -33.990588            0    3319.1459    906.21487    166632.97 
    9400    281.78183   -31.626972            0    3327.2855    897.12555    169624.98 
    9500     282.3603   -38.071023            0     3327.737    883.55247    172673.48 
    9600    280.92949    -32.16002            0    3316.5923     864.8778    175776.36 
    9700    281.35236   -35.949558            0    3317.8436    846.15431    178923.31 
    9800    281.44215    -30.67913            0    3324.1843    841.95098    182123.71 
    9900    281.36596   -31.289554            0    3322.6657    814.94092    185377.55 
   10000    281.52809    -33.56595            0    3322.3219     801.5369    188686.47 
   10100    281.49878    -27.82756            0    3327.7109    792.24449    192053.63 
   10200    281.90024   -29.606848            0    3330.7172    777.51513    195484.15 
   10300    281.72681   -36.648706            0    3321.6079    761.95806    198972.23 
   10400    281.06528   -34.019952            0    3316.3511    747.43752    202513.44 
   10500    281.72136   -30.062982            0    3328.1287    735.57627    206113.78 
   10600    281.68686   -27.312573            0    3330.4678    724.63081    209781.06 
   10700    281.15844   -29.015701            0    3322.4658    709.19074    213512.53 
   10800    281.68343   -30.224794            0    3327.5148    700.79393    217299.62 
   10900    282.52133   -29.126221            0    3338.6014    690.34346    221154.88 
   11000    281.69512   -25.870495            0    3332.0084    680.00856    225082.55 
   11100    280.98462   -28.800235            0    3320.6093    663.03595    229073.26 
   11200    281.07729   -24.107752            0    3326.4064    649.36899    233122.21 
   11300     282.4615   -24.324237            0    3342.6901    642.09096    237246.17 
   11400    282.50189   -26.593197            0    3340.9026    631.02417    241451.99 
   11500    281.55441   -27.343447            0    3328.8581    620.99831    245724.09 
   11600    280.96919   -26.282988            0    3322.9426    607.69696    250056.15 
   11700    281.16242   -25.936316            0    3325.5927    598.51334    254458.25 
   11800    281.52701   -25.068815            0    3330.8062    587.72153    258937.07 
   11900    281.44406   -22.898614            0    3331.9876    578.90888    263499.23 
   12000    281.73748   -25.965884            0     3332.418    571.41684    268137.38 
   12100    281.51212   -26.142558            0    3329.5549    559.16322    272853.45 
   12200    281.60682   -27.737613            0    3329.0887     551.1705    277644.82 
   12300    281.39294   -25.422957            0    3328.8539     537.9674    282521.21 
   12400    280.99962   -19.810277            0    3329.7781    530.61067    287477.35 
   12500    281.40941   -21.381455            0    3333.0917    523.01043    292520.16 
   12600    281.54223   -18.977312            0    3337.0791    514.28759    297650.31 
   12700    281.88651   -19.504879            0    3340.6554    504.22968    302872.16 
   12800    281.71086   -19.299569            0     3338.767    495.30392    308184.04 
   12900    281.40698   -20.461175            0     3333.983    486.86602    313578.19 
   13000    281.60124    -24.51152            0    3332.2483    478.56363    319061.09 
   13100    281.44201   -19.674276            0    3335.1875    469.70338    324634.24 
   13200    281.61432   -19.258022            0    3337.6578    465.32991     330304.3 
   13300    281.56095   -20.915948            0    3335.3636    453.05871    336070.27 
   13400     281.2337   -17.269435            0    3335.1092    444.52242    341930.18 
   13500    281.95254   -19.426908            0    3341.5205    439.14112    347888.79 
   13600    281.83086   -19.796922            0    3339.7001    430.98113    353957.95 
   13700    281.02337   -18.102871            0    3331.7686    424.53202    360126.09 
   13800    281.19964   -19.524816            0    3332.4478    414.71222    366384.57 
   13900    281.77465    -17.93932            0    3340.8876    408.39057    372750.11 
   14000    282.14345   -19.881976            0    3343.3411    405.18106    379234.93 
   14100    281.61628   -17.717787            0    3339.2213    396.09213    385830.34 
   14200    281.43238    -19.18373            0    3335.5632     386.3129    392532.06 
   14300    281.51281   -18.799804            0    3336.9059    382.96337    399335.68 
   14400    281.50025   -15.707487            0    3339.8485    376.54477    406259.78 
   14500    281.72278   -18.743982            0    3339.4646     367.8323    413309.33 
   14600     281.4621   -14.925204            0     3340.176    364.35003    420471.44 
   14700    281.71808   -15.289669            0    3342.8629     355.9552    427751.91 
   14800     281.2763   -14.469021            0    3338.4174    351.12922    435157.82 
   14900    280.95361   -14.094262            0    3334.9456    343.73918    442678.92 
   15000     282.0202   -18.500048            0    3343.2539    338.24396    450321.23 
   15100     282.1415   -13.752493            0    3349.4474    333.76804    458104.14 
   15200     281.9518   -14.404444            0    3346.5342    327.67265    466026.12 
   15300    280.95026   -12.714276            0    3336.2858    322.39338    474072.19 
   15400    281.15603   -14.892881            0    3336.5599    315.52848     482232.1 
   15500    281.85866   -11.488824            0    3348.3395    311.54867    490536.84 
   15600    282.44687    -14.19311            0    3352.6468      307.558    499004.02 
   15700    281.40939   -11.874739            0    3342.5981    301.18036    507617.58 
   15800    281.10977   -13.995316            0     3336.906    295.37823     516349.7 
   15900    281.24263   -12.546084            0    3339.9391    290.47312    525218.49 
   16000    281.68891   -12.395123            0    3345.4098    285.64282    534243.56 
   16100    281.74839   -13.833956            0      3344.68      280.523    543428.13 
   16200    281.43931   -14.428343            0    3340.4012    276.46454    552759.94 
   16300    281.48543   -14.197341            0     3341.182    272.00813    562237.45 
   16400    281.88434   -16.632919            0    3343.5016    268.11946    571876.72 
   16500    281.60727   -12.882103            0    3343.9496    262.01279    581685.43 
   16600    281.38408   -10.892272            0    3343.2789    257.91839       591657 
   16700    281.22874   -10.833981            0    3341.4856    253.94686     601782.9 
   16800    281.54358   -13.481139            0    3342.5913    249.42013    612073.42 
   16900    281.70916   -12.964456            0    3345.0818    245.84302    622543.14 
   17000    281.61369   -10.647435            0    3346.2608     240.9602    633189.08 
   17100    281.23631   -8.6365239            0    3343.7732     239.9159    644011.11 
   17200    281.46508   -14.187639            0    3340.9491     233.9987    655009.02 
   17300    281.61069   -13.106672            0    3343.7658    229.57569     666184.5 
   17400    281.78958   -10.782148            0    3348.2227    225.04372    677552.09 
   17500    281.57765   -9.5833223            0    3346.8954    222.46532    689112.65 
   17600     281.2065   -10.424813            0    3341.6296    218.89249    700858.45 
   17700     281.6383   -13.943302            0    3343.2583    214.10456    712791.02 
   17800    281.70454   -8.0762364            0    3349.9149    211.01407    724927.94 
   17900    282.02314   -9.7467656            0    3352.0423    208.92446    737279.93 
   18000    281.43467   -10.053869            0    3344.7205    204.83382    749834.64 
   18100    281.31441   -10.531868            0    3342.8089    200.29217    762574.45 
   18200    281.75745   -7.7555758            0    3350.8663    197.29722    775529.77 
   18300    282.14119   -8.4098636            0    3354.7863    194.08431    788721.05 
   18400    281.45479   -8.0109265            0    3347.0031    190.57874    802129.75 
   18500    281.11839   -8.0736216            0    3342.9306    187.33788    815734.97 
   18600     281.4668   -6.0538964            0    3349.1034    184.17512    829562.78 
   18700    282.01777   -6.8612687            0    3354.8637      181.629    843631.89 
   18800    281.64268   -6.1055222            0    3351.1483    178.82462    857952.96 
   18900    281.24315   -6.5593483            0    3345.9319    175.14718    872493.71 
   19000    281.16693    -5.523965            0    3346.0588    172.11547    887260.37 
   19100    281.80491   -7.1725204            0    3352.0151    169.89921    902268.28 
   19200    281.97917   -9.3390825            0    3351.9258    166.91821    917550.66 
   19300    281.45045   -8.1402773            0    3346.8221    164.04912    933081.14 
   19400    281.35311   -6.9024381            0    3346.8997     160.9589    948840.33 
   19500    281.33703   -4.1594159            0    3349.4509    158.54177    964864.42 
   19600    281.65985    -7.971949            0    3349.4865    156.39227    981156.68 
   19700    281.60484   -6.3429207            0    3350.4598    153.46607    997716.82 
   19800    282.00985   -6.7466776            0    3354.8839    151.13738    1014548.2 
   19900    281.75299   -6.3803609            0    3352.1883    148.49047      1031673 
   20000    281.11828   -6.1531804            0    3344.8497    146.17971    1049064.8 
   20100    281.43102   -8.2383538            0    3346.4925    143.22016    1066721.9 
   20200    282.19208   -9.2360861            0    3354.5666    141.48534    1084684.2 
   20300    281.79604   -5.0757571            0    3354.0061    138.78198    1102969.3 
   20400    281.49821   -7.2889811            0    3348.2427    136.49999    1121529.6 
   20500    281.25451   -7.9259389            0    3344.7008    134.35455    1140374.5 
   20600    281.58939   -6.1001964            0    3350.5183    132.26409    1159518.1 
   20700    282.08937   -5.7680818            0    3356.8103    129.94443    1179002.4 
   20800    281.69208   -5.4191731            0    3352.4235    128.10122    1198824.5 
   20900    281.32412   -6.8185096            0     3346.638     125.3832    1218948.9 
   21000    281.28794   -4.1872224            0    3348.8379    123.35506    1239375.3 
   21100    281.96815   -6.0444647            0    3355.0891    121.52247    1260157.7 
   21200    281.68478   -4.6017287            0    3353.1539    119.71725    1281299.1 
   21300    281.34136    -4.965164            0    3348.6969    117.44772    1302767.7 
   21400    281.37468   -4.9333993            0    3349.1257    115.42437    1324568.7 
   21500    281.73127   -5.2143251            0    3353.0955    113.85434    1346734.5 
   21600    281.80762   -4.9080947            0    3354.3118     111.9531    1369284.4 
   21700    281.65931   -5.3193255            0    3352.1327    109.94062    1392196.6 
   21800    281.41176   -4.8934576            0    3349.6077     108.0326    1415465.9 
   21900     281.5197   -5.7872931            0    3350.0005    106.27138    1439097.9 
   22000    281.52644   -3.7945983            0    3352.0736    104.59444      1463128 
   22100    281.48912   -3.3660148            0    3352.0573     102.9545    1487555.9 
   22200    281.60955   -4.9825601            0    3351.8763    101.32994    1512372.6 
   22300    281.61853   -4.2301035            0    3352.7358    100.01138    1537591.9 
   22400    281.96267   -7.3255718            0    3353.7426    98.122933    1563229.6 
   22500    281.58943   -5.3358894            0    3351.2831    96.270262    1589294.7 
   22600     281.3767   -5.2146239            0    3348.8686    94.872159      1615746 
   22700    281.45097   -5.0278502            0    3349.9407    93.266922    1642619.4 
   22800    281.62937   -3.1866204            0    3353.9085    92.126494    1669943.8 
   22900    281.79362   -3.4755159            0    3355.5775    90.423417    1697734.8 
   23000    281.61452   -4.3407806            0    3352.5774    88.648621    1725976.7 
   23100    281.25165   -3.0459418            0    3349.5467    87.187322    1754647.4 
   23200    281.42113   -3.4243422            0    3351.1886    85.806485    1783764.6 
   23300     281.7285   -3.7555349            0    3354.5212    84.565991    1813369.3 
   23400    281.76277   -4.0119116            0    3354.6734    83.158482    1843481.9 
   23500    281.51445    -3.501045            0    3352.2242    81.713033    1874079.5 
   23600    281.41613   -2.7401559            0    3351.8132    80.363411    1905144.1 
   23700    281.61051   -4.0516502            0    3352.8187     79.06318    1936705.8 
   23800      281.608   -3.4410231            0    3353.3994    77.977205    1968784.7 
   23900    281.52283   -2.1131087            0     3353.712    76.596688    2001390.5 
   24000    281.59801   -3.1501358            0    3353.5712    75.293554    2034513.7 
   24100    281.42849   -2.6967202            0    3352.0038    74.192969    2068170.2 
   24200    281.50191   -1.9201812            0    3353.6556    72.895478    2102357.7 
   24300    281.73091   -1.4786448            0    3356.8268    71.779309    2137108.6 
   24400    281.83759   -3.6092997            0    3355.9678    70.641179    2172434.2 
   24500    281.44279   -2.5313888            0    3352.3397    69.368023    2208314.8 
   24600    281.53978   -3.8027657            0    3352.2245    68.259146    2244748.3 
   24700    281.60438   -2.6453627            0    3354.1518    67.135702    2281771.6 
   24800    281.63802   -2.1438498            0    3355.0544    66.110867    2319396.6 
   24900    281.48985   -1.5317422            0    3353.9003    65.008702    2357632.4 
   25000    281.61594   -3.6738041            0    3353.2612    63.943948    2396470.9 
   25100    281.63463   -2.4788463            0     3354.679    63.213854    2435936.4 
   25200    281.82036   -2.8702907            0    3356.5015    61.922601    2476041.6 
   25300    281.51579   -1.9814557            0    3353.7598    60.899859    2516791.6 
   25400    281.31104   -1.9545688            0     3351.346    59.856458    2558160.5 
   25500    281.62202   -2.3573412            0    3354.6502     58.95956    2600173.4 
   25600    281.98194   -2.9596941            0    3358.3381     58.05414    2642902.4 
   25700    281.81736   -3.5282424            0    3355.8078    57.059514    2686331.3 
   25800    281.33105   -3.4849906            0    3350.0541    56.135808    2730403.2 
   25900    281.27696   -3.1275134            0    3349.7668    55.154398    2775127.4 
   26000    281.71416   -3.0820651            0    3355.0238    54.350423    2820602.7 
   26100    281.94769   -2.8076943            0    3358.0819    53.667017    2866851.3 
   26200    281.73412   -2.4655591            0    3355.8783     52.72708    2913847.1 
   26300    281.39298    -1.980333            0    3352.2969    51.813318    2961557.3 
   26400    281.49501   -3.0363937            0    3352.4571    50.914424    3009984.9 
   26500    281.76287   -2.5773149            0    3356.1092    50.185194    3059183.5 
   26600    282.00573   -3.0675228            0     3358.514    49.453376    3109212.3 
   26700    281.65529   -2.2922479            0    3355.1119    48.988625    3160054.2 
   26800    281.39681   -3.4962403            0    3350.8267    47.682364    3211671.3 
   26900     281.4296   -2.2895852            0    3352.4243     46.92169      3264029 
   27000     281.8904   -2.0169606            0    3358.1898    46.267002    3317257.7 
   27100    281.85032   -1.3891501            0    3358.3397    45.517852    3371399.2 
   27200    281.49429   -2.0902896            0    3353.3946    44.740755    3426378.6 
   27300    281.30847     -2.77657            0    3350.4933    43.993442    3482155.9 
   27400    281.55772   -1.4117909            0    3354.8293    43.339713    3538803.5 
   27500    282.11692   -3.3427519            0    3359.5641    42.743731    3596411.6 
   27600    281.71916   -2.6149143            0    3355.5505    41.947452    3654968.2 
   27700    281.29589   -2.1307391            0    3350.9892    41.275364    3714383.3 
   27800    281.54632   -1.6583177            0    3354.4468    40.600956    3774676.8 
   27900    281.93845   -1.7948594            0    3358.9846     40.02802    3835974.3 
   28000    281.87332   -3.0473577            0    3356.9558    39.345206    3898287.3 
   28100    281.32729   -1.4185209            0    3352.0757    38.668415    3961533.4 
   28200    281.40226   -2.0705244            0    3352.3174    38.069493    4025707.1 
   28300    281.77851   -1.6952972            0    3357.1776    37.494191    4090916.3 
   28400    282.04219   -2.3385681            0    3359.6774    36.925663    4157223.7 
   28500    281.66411   -1.5973431            0    3355.9119    36.308929    4224585.9 
   28600    281.29514   -1.2527646            0    3351.8583    35.679296    4292925.2 
   28700    281.43075   -1.6001087            0    3353.1274    35.137766    4362274.9 
   28800    281.89826   -2.2415574            0    3358.0589    34.611987      4432749 
   28900    282.03948    -2.358048            0    3359.6257    34.087608    4504403.2 
   29000    281.56945   -1.9873897            0    3354.3935    33.568266    4577187.8 
   29100     281.2097   -1.9846008            0     3350.108    32.919358    4651004.7 
   29200    281.49973   -1.0688197            0     3354.481     32.43824      4725910 
   29300    282.10776   -1.2228538            0    3361.5748    32.001376    4802080.2 
   29400    282.00527   -1.2720236            0     3360.304    31.483441    4879542.5 
   29500    281.46579   -1.9912059            0     3353.154     30.94413    4958166.8 
   29600    281.17554    -1.284209            0    3350.4011    30.393234      5037859 
   29700    281.68486   -1.1411168            0    3356.6155    29.988918    5118768.5 
   29800    282.11438   -1.1907545            0    3361.6859    29.540641    5201065.3 
   29900    281.79097   -1.2945461            0    3357.7269    29.032098    5284709.9 
   30000     281.3244   -1.5344924            0    3351.9253    28.529237      5369543 
   30100    281.41775    -1.758197            0    3352.8144    28.098614      5455586 
   30200    281.89272   -1.9541238            0    3358.2802    27.725858    5542998.2 
   30300    282.00307   -2.5152752            0    3359.0345    27.248953    5631861.1 
   30400    281.65168   -2.8480241            0     3354.513    26.793069    5722064.3 
   30500    281.36915   -1.8502881            0    3352.1429    26.359546    5813568.7 
   30600    281.54933   -1.2114986            0    3354.9295    25.964539    5906464.2 
   30700    281.86596   -1.8028143            0    3358.1126    25.566866    6000860.1 
   30800    281.71455   -1.0476191            0    3357.0629    25.163597    6096757.8 
   30900    281.52867  -0.98133729            0    3354.9134    24.758308    6194090.5 
   31000    281.51186   -1.2926503            0    3354.4018    24.373366    6292865.5 
   31100    281.68936   -1.8493975            0    3355.9609    24.035128      6393155 
   31200    281.80673   -1.1033646            0    3358.1059    23.630454      6495024 
   31300    281.74243   -1.1543438            0    3357.2885    23.250153    6598491.3 
   31400    281.54022   -1.9598171            0    3354.0726    22.858857    6703494.1 
   31500    281.46353   -1.8107743            0    3353.3076    22.498377    6810008.2 
   31600    281.69308   -1.0560906            0    3356.7985    22.181208    6918167.9 
   31700    281.89072   -1.0792454            0    3359.1313    21.856322    7028047.5 
   31800    281.67469   -1.0522543            0    3356.5831    21.499457    7139641.9 
   31900    281.50144   -1.7118199            0    3353.8584     21.13665    7252847.2 
   32000    281.56368  -0.99471561            0    3355.3174    20.816532    7367706.7 
   32100    281.91502   -2.1083282            0    3358.3918    20.511515    7484348.4 
   32200    281.82026   -1.9449131            0    3357.4257    20.191319    7602824.7 
   32300    281.51658   -1.1106052            0    3354.6401    19.848874      7723062 
   32400    281.48595  -0.89963296            0    3354.4859    19.541507    7845017.2 
   32500    281.71896   -1.0164661            0    3357.1466    19.251815    7968825.1 
   32600     281.8216  -0.92078953            0    3358.4658    18.961218    8094577.9 
   32700    281.68348   -1.2462926            0    3356.4938    18.652919    8222245.9 
   32800    281.46906  -0.84059705            0    3354.3436    18.355613    8351760.8 
   32900    281.59374   -1.1412828            0    3355.5291    18.074663    8483157.2 
   33000    281.76595  -0.82377607            0    3357.8995    17.810365      8616562 
   33100    281.78669  -0.85612498            0    3358.1144    17.535354    8752043.1 
   33200    281.60189  -0.88370063            0    3355.8839    17.252398    8889532.9 
   33300    281.51033   -1.0035255            0    3354.6726     16.97882    9028987.8 
   33400    281.65415  -0.88800679            0    3356.5025    16.727614      9170489 
   33500    281.83149  -0.92225719            0    3358.5822    16.480713    9314174.6 
   33600     281.7362  -0.97542675            0    3357.3932    16.222999    9460052.2 
   33700    281.54309   -1.1785591            0    3354.8881     15.96386    9608030.7 
   33800    281.57438   -1.3717548            0    3355.0678    15.719947    9758118.1 
   33900    281.76702   -1.0899563            0     3357.646    15.487453    9910421.8 
   34000     281.8092  -0.87438668            0    3358.3644    15.250153     10065083 
   34100    281.56765  -0.80231318            0    3355.5571    15.002409     10222039 
   34200    281.47398   -1.0950084            0    3354.1479    14.763904     10381184 
   34300    281.76359   -1.0256076            0    3357.6695    14.556223     10542648 
   34400    282.03136    -1.007626            0    3360.8793     14.35421     10706630 
   34500     281.7807   -1.4937155            0    3357.4053    14.111423     10873097 
   34600    281.34857   -1.6517712            0    3352.0962    13.869944     11041830 
   34700    281.54621  -0.90927933            0    3355.1946     13.67452     11212812 
   34800    282.19682   -1.0011849            0    3362.8581     13.50141     11386492 
   34900    282.07829   -1.1150827            0    3361.3313    13.288037     11563001 
   35000    281.36365    -0.765564            0    3353.1622    13.051141     11741940 
   35100    281.31318  -0.94803731            0    3352.3781    12.849471     11923103 
   35200    282.07517    -1.006255            0    3361.4029    12.695669     12106961 
   35300    282.40803  -0.78464249            0    3365.5923    12.511583     12293877 
   35400    281.74654  -0.80848473            0    3357.6833    12.292595     12483580 
   35500     281.1161   -1.0222085            0    3349.9547    12.084057     12675582 
   35600    281.61903  -0.75093626            0    3356.2209    11.917866     12870059 
   35700    282.65671  -0.93027643            0     3368.411    11.781765     13067735 
   35800    282.50663  -0.88744655            0    3366.6648    11.596544     13268771 
   35900    281.50029   -1.8155213            0     3353.741    11.381137     13472450 
   36000     281.0041   -1.7914845            0    3347.8503    11.186807     13678351 
   36100    282.12048  -0.71053648            0    3362.2387    11.064888     13887070 
   36200    283.32641    -1.074661            0    3376.2496    10.947639     14099590 
   36300    282.69689   -0.7008583            0    3369.1194     10.75555     14315707 
   36400    281.40223  -0.99041389            0    3353.3971    10.547421     14534337 
   36500    280.65554  -0.72694796            0    3344.7599     10.35982     14755104 
   36600    282.42923   -1.8582182            0    3364.7714    10.268392     14978789 
   36700    284.18344  -0.88093152            0    3386.6594    10.178636     15206937 
   36800    283.71319  -0.70959658            0    3381.2252    10.008368     15439343 
   36900    285.51739   -1.7316185            0    3401.7097    9.9187222     15674713 
   37000    289.87896  -0.84845885            0     3454.584    9.9204586     15915422 
   37100    282.33926  -0.65481538            0    3364.9023    9.5156836     16160613 
   37200    276.59428  -0.83645032            0    3296.2391    9.1839551     16403465 
   37300    281.58544   -1.4014242            0    3355.1701    9.2118818     16646670 
   37400     282.1792  -0.75164162            0    3362.8977    9.0955164     16896719 
   37500    282.15387  -0.71443509            0    3362.6329    8.9594967     17151389 
   37600    284.26956  -0.67122764            0    3387.8956    8.8933057     17409867 
   37700    285.49451  -0.77585116            0    3402.3927    8.7984467     17673331 
   37800    284.79467  -0.89664992            0    3393.9296    8.6462017     17940948 
   37900    284.36157   -1.6488431            0    3388.0149    8.5007711     18211478 
   38000    283.37789  -0.96630456            0    3376.9717    8.3508425     18484960 
   38100    283.25659  -0.97715092            0    3375.5149    8.2237096     18761455 
   38200    285.14991  -0.81805455            0    3398.2429     8.156041     19042014 
   38300    286.22586  -0.66220894            0    3411.2243    8.0654493     19328096 
   38400    283.86817   -1.4849153            0    3382.2973    7.8843013     19618482 
   38500     278.8791  -0.72170642            0    3323.5895    7.6285175     19909840 
   38600     281.0197  -0.91798745            0    3348.9097    7.5764087     20201487 
   38700    285.24125   -0.4308865            0    3399.7188    7.5792592     20499996 
   38800    283.41042  -0.86381517            0     3377.462    7.4301413     20805776 
   38900    281.11141 -0.025586364            0    3350.8953     7.254726     21113784 
   39000    286.64547  -0.03099931            0    3416.8573    7.2901771     21424652 
   39100    287.03378 -0.0032299262            0    3421.5139    7.1928928     21744366 
   39200    280.29823 -0.0036353199            0    3341.2239    6.9212781     22067401 
   39300    278.38257  -0.10421061            0    3318.2882    6.7749407     22387990 
   39400    287.20251   -0.5914942            0    3422.9369     6.887193     22713670 
   39500    283.74525    -0.188334            0    3382.1286    6.7066774     23049960 
   39600    279.09249 -0.0030114306            0    3326.8519    6.5025821     23387279 
   39700    282.44493 -0.0053612299            0    3366.8114    6.4870646     23724771 
   39800    285.76339 -0.0053628803            0    3406.3684    6.4689261     24070821 
   39900    282.45297 -0.0023710098            0    3366.9103    6.3015822     24423854 
   40000    280.62084 -0.0022331171            0     3345.071     6.171289     24777742 
   40100     287.6094 -0.0035420753            0    3428.3751    6.2349825     25135357 
   40200     287.0049  -0.23278242            0    3420.9401    6.1306904     25504426 
   40300    281.01432 -0.027128786            0    3349.7365    5.9173994     25876505 
   40400    279.76418 -0.047702093            0    3334.8139    5.8079646     26246309 
   40500    284.77533  -0.68595021            0    3393.9099     5.826516     26620429 
   40600     283.9639  -0.58775158            0    3384.3356    5.7273891     27004556 
   40700    281.22835  -0.35551369            0    3351.9593     5.592689     27392564 
   40800    282.11067 -0.037332037            0     3362.795    5.5329488     27782228 
   40900    286.16206 -0.0026554182            0    3411.1234    5.5336051     28178731 
   41000    285.02827  -0.98705965            0    3396.6239    5.4324599     28584446 
   41100     276.7342 -0.0014608387            0     3298.742     5.201158     28992174 
   41200    271.10388 -0.0031640018            0    3231.6254    5.0259688     29392276 
   41300    279.42648 -0.0012448501            0    3330.8349    5.1104183     29794025 
   41400    283.44964 -0.0019291699            0    3378.7913    5.1123651     30211470 
   41500    284.99607 -0.0024030923            0    3397.2247    5.0682094     30640932 
   41600    283.52193  -0.00230315            0    3379.6527    4.9713037     31076638 
   41700    281.87919  -0.10200061            0    3359.9711    4.8734676     31514099 
   41800    285.07666 -0.0040286475            0    3398.1837     4.861215     31954634 
   41900    287.05256 -0.0018213987            0    3421.7392    4.8268894     32404994 
   42000    281.58934 -0.0011301312            0    3356.6169    4.6692077     32861784 
   42100    273.07453 -0.0018659419            0    3255.1174    4.4666061     33313584 
   42200    279.69385 -0.021039334            0    3334.0022    4.5142194     33760637 
   42300    283.21215 -0.0087939175            0    3375.9535    4.5093282     34222774 
   42400    283.86097 -0.0062063236            0    3383.6902    4.4578155     34697626 
   42500    283.85802 -0.027531318            0    3383.6337    4.3967034     35178881 
   42600    284.18988  -0.82390919            0    3386.7931    4.3468794     35664705 
   42700     285.7865  -0.17492464            0    3406.4742    4.3063843     36156212 
   42800    286.53972   -1.0054711            0    3414.6223    4.2596754     36655497 
   42900    282.15011  -0.18001511            0    3363.1225    4.1367395     37159811 
   43000    276.87663 -0.047129404            0    3300.3941    4.0058774     37660726 
   43100    282.46884 -0.0042524009            0    3367.0975    4.0333981     38160703 
   43200    284.78374 -0.0038895862            0    3394.6922    4.0122955     38675803 
   43300     282.4787  -0.97666219            0    3366.2427    3.9255473     39200916 
   43400    281.76093 -0.045530117            0    3358.6178     3.864487     39727377 
   43500    287.77568  -0.20993924            0    3430.1508    3.8942164     40260109 
   43600    286.15816 -0.031110357            0    3411.0483    3.8209843     40807278 
   43700    279.03932 -0.0040187269            0     3326.217    3.6766404     41355305 
   43800    279.27731 -0.0047601892            0    3329.0532    3.6323337     41895426 
   43900    287.39313 -0.043997961            0    3425.7566    3.6892466     42446381 
   44000    283.39722 -0.0068134058            0    3378.1616    3.5899998     43014720 
   44100     278.4619 -0.010291543            0    3319.3278    3.4816371     43580961 
   44200    282.24224 -0.011144094            0    3364.3896    3.4838919     44143990 
   44300    285.54721 -0.015773757            0    3403.7811    3.4792095     44720832 
   44400    282.61203  -0.13037423            0    3368.6783    3.3983968     45309197 
   44500    280.79256  -0.04919073            0    3347.0709    3.3334738     45897410 
   44600    287.95248 -0.013040733            0    3432.4552      3.37505     46489432 
   44700    287.33783 -0.077821387            0    3425.0636    3.3239692     47100483 
   44800    280.77292 -0.00083546681            0    3346.8852    3.2064389     47714512 
   44900     279.4997 -0.0023509981            0    3331.7066    3.1519135     48319752 
   45000    282.86815 -0.068057582            0    3371.7937    3.1500456     48928276 
   45100    282.32208 -0.0034293703            0     3365.349    3.1047326     49549340 
   45200    281.83347 -0.00082556611            0    3359.5273    3.0606316     50176428 
   45300    284.08651 -0.0010260604            0    3386.3839    3.0466851     50809066 
   45400    286.50082 -0.00053862235            0    3415.1636    3.0341177     51453131 
   45500    285.78516 -0.0012324155            0     3406.632     2.988499     52108029 
   45600    280.28484 -0.028693803            0    3341.0393    2.8944573     52764264 
   45700    278.14078 -0.027355727            0    3315.4829     2.837518     53411394 
   45800    284.23668 -0.0020661836            0    3388.1729    2.8648967     54061603 
   45900    284.77304 -0.039551492            0     3394.529    2.8350784     54731492 
   46000    281.83655 -0.032712418            0     3359.532     2.771537     55409284 
   46100    281.82662 -0.052887657            0    3359.3935    2.7380098     56084816 
   46200    288.18208 -0.00097924716            0    3435.2042    2.7661374     56769021 
   46300    285.02232 -0.00057490625            0    3397.5394    2.7023677     57471532 
   46400    278.03784 -0.0049187995            0    3314.2782    2.6045078     58169438 
   46500    280.91982 -0.062580585            0    3348.5745    2.6007684     58853901 
   46600       286.94 -0.0048721787            0    3420.3943     2.625361     59555073 
   46700    282.48218 -0.093031989            0    3367.1678    2.5534992     60275176 
   46800    278.87693 -0.086185179            0    3324.1991    2.4914317     60988663 
   46900    284.10326 -0.023139364            0    3386.5614    2.5090718     61698248 
   47000    286.15448 -0.0018111834            0    3411.0339     2.497714     62427467 
   47100    282.18274 -0.00037313837            0     3363.691    2.4341994     63167357 
   47200    280.37196 -0.00032896725            0    3342.1062    2.3908319     63900458 
   47300    288.16508 -0.0011902469            0    3435.0014    2.4293552     64635104 
   47400     287.9807 -0.0059396338            0    3432.7987    2.3995224     65396557 
   47500    281.37959 -0.008561506            0    3354.1092    2.3173962     66161836 
   47600    279.44863 -0.071058183            0    3331.0291    2.2756265     66910193 
   47700     284.6943 -0.0035956069            0    3393.6263    2.2928822     67657228 
   47800    285.33414 -0.0028033275            0    3401.2542    2.2722478     68425113 
   47900    282.11672 -0.0057866318            0    3362.8987    2.2214336     69200912 
   48000     281.1794 -0.002030386            0    3351.7293    2.1896999     69970771 
   48100    285.23604 -0.0027925623            0    3400.0848    2.1970587     70742470 
   48200    288.53795 -0.015397932            0    3439.4318    2.1978774     71533951 
   48300    279.65317 -0.0037001196            0    3333.5346    2.1065461     72337898 
   48400    273.16094 -0.0018660865            0    3256.1474    2.0358955     73110698 
   48500    280.13082 -0.00091417891            0    3339.2311    2.0664679     73866994 
   48600    283.74161 -0.00022968186            0    3382.2734    2.0711613     74649616 
   48700    284.58106 -0.00014514715            0    3392.2799    2.0550919     75455907 
   48800    283.29421 -0.00015582604            0    3376.9403    2.0239367     76270967 
   48900    282.34626 -0.00035270451            0    3365.6403    1.9959017     77083482 
   49000    285.30586 -0.0004276546            0    3400.9195    1.9957872     77895944 
   49100    286.71014 -0.00028057901            0    3417.6589    1.9845604     78722191 
   49200    281.38902 -0.00050183778            0    3354.2296    1.9273506     79554506 
   49300    274.99507 -0.003069692            0    3278.0095     1.864561     80364760 
   49400    282.44584 -0.0065225117            0    3366.8212    1.8964062     81155853 
   49500    284.69973 -0.00040987397            0    3393.6942    1.8924487     81974983 
   49600    282.51777 -0.00016079956            0    3367.6849    1.8589552     82812396 
   49700    281.46749 -0.00025953152            0    3355.1653    1.8335966     83645560 
   49800    286.09431 -0.011797626            0    3410.3066    1.8453501     84478172 
   49900    287.59858 -0.0029142909            0    3428.2467    1.8365105     85331774 
   50000    279.46925 -0.0010994175            0    3331.3448    1.7668207     86190553 
   50100    273.67982 -0.0012420353            0    3262.3332    1.7138868     87011908 
   50200    282.56888 -0.0017159951            0    3368.2926     1.753403     87813337 
   50300    283.19071 -0.0013852715            0    3375.7053    1.7407484     88646383 
   50400    283.20888 -0.0010016553            0    3375.9223    1.7243443     89495467 
   50500    283.82829 -0.0016635735            0    3383.3052    1.7117881     90349052 
   50600    284.62626 -0.025904555            0    3392.7929    1.7004249     91206580 
   50700    284.65602   -0.3266529            0     3392.847    1.6842679     92068243 
   50800    283.07057 -0.0028098921            0    3374.2718    1.6598152     92929252 
   50900    281.59219 -0.00040659628            0    3356.6515    1.6361497     93781239 
   51000    284.09459 -0.00021706394            0     3386.481    1.6359397     94626797 
   51100      287.021 -0.00018131482            0    3421.3646     1.637921     95485894 
   51200    283.37364 -0.00015307712            0    3377.8872    1.6024525     96359109 
   51300    274.77395 -0.00021420412            0    3275.3765    1.5402333     97209233 
   51400     279.3961 -0.00038643484            0    3330.4736     1.553234     98017100 
   51500    284.06759 -0.0009889606            0    3386.1584    1.5660208     98842183 
   51600    283.24469 -0.0057060994            0    3376.3445    1.5481018     99696201 
   51700    282.35787 -0.036500213            0    3365.7426     1.530061 1.0055315e+08 
   51800     284.3919 -0.011598293            0    3390.0136    1.5281539 1.0140613e+08 
   51900    287.77556 -0.0064311073            0    3430.3529    1.5332789 1.0227014e+08 
   52000    284.13161 -0.028468302            0    3386.8941    1.5009342 1.0314913e+08 
   52100    275.34897 -0.0084829979            0    3282.2226    1.4426592 1.0400037e+08 
   52200    279.45231 -0.00056129409            0    3331.1435    1.4529698 1.0480197e+08 
   52300     283.4614 -0.00033710016            0    3378.9331    1.4624778 1.0561438e+08 
   52400    283.14925 -0.0016637927            0    3375.2108    1.4493638 1.0645251e+08 
   52500    283.03377 -0.0095812266            0    3373.8263     1.437376 1.072958e+08 
   52600    285.07348  -0.37815625            0    3397.7716    1.4360334 1.0813912e+08 
   52700    287.55753 -0.012909402            0    3427.7475    1.4375936 1.0899392e+08 
   52800    283.31947 -0.00088678695            0    3377.2406     1.405272 1.0985865e+08 
   52900    276.04672 -0.00026078939            0    3290.5482    1.3589208 1.1068962e+08 
   53000    281.02609 -0.00032742375            0    3349.9035    1.3737255 1.1147183e+08 
   53100    284.93169 -0.0005857341            0    3396.4591    1.3829094 1.1227042e+08 
   53200    282.92199 -0.00053158071            0     3372.503    1.3631422 1.1309513e+08 
   53300    281.18341 -0.00018949407            0     3351.779    1.3450459 1.1391242e+08 
   53400    284.87912 -7.6247984e-05            0    3395.8329    1.3531729 1.1471649e+08 
   53500     289.1161 -4.1808811e-05            0    3446.3389    1.3634914 1.1554161e+08 
   53600    282.24452 -0.00024891028            0    3364.4276    1.3214088 1.1638762e+08 
   53700    276.36006 -0.013466886            0    3294.2701    1.2850259 1.1718625e+08 
   53800    279.45991 -0.00048985033            0    3331.2342    1.2912266 1.1793302e+08 
   53900    282.62067 -0.0023442753            0    3368.9094    1.2976001 1.1868087e+08 
   54000    284.94242 -0.00011332979            0    3396.5874    1.2998139 1.1945228e+08 
   54100    284.34275 -3.3834836e-05            0    3389.4393    1.2885367 1.2024414e+08 
   54200      279.919 -5.3806105e-05            0    3336.7071    1.2602479 1.2103053e+08 
   54300    277.51285 -0.00016126159            0     3308.025    1.2417578 1.2177684e+08 
   54400     284.9512 -0.001690505            0    3396.6905    1.2675211 1.2249918e+08 
   54500    286.10453 -0.017841579            0    3410.4224    1.2647993 1.2325794e+08 
   54600    281.61815 -0.00015002306            0    3356.9612    1.2372155 1.2403201e+08 
   54700     278.4413 -6.8230655e-05            0    3319.0924    1.2160064 1.2477176e+08 
   54800    286.11241 -0.00012015176            0     3410.534    1.2424588 1.2547962e+08 
   54900    287.91452 -0.00028842001            0    3432.0155    1.2429006 1.2622507e+08 
   55000    281.13271 -0.0011072586            0    3351.1738    1.2063305 1.2698815e+08 
   55100    278.61066 -0.002064612            0    3321.1092    1.1888308 1.2770133e+08 
   55200    285.10409 -0.00092272416            0    3398.5138     1.210133 1.2837739e+08 
   55300    286.94079 -0.0010506316            0    3420.4076    1.2112656 1.290836e+08 
   55400    283.19074 -0.0004968962            0    3375.7066    1.1887576 1.2980879e+08 
   55500    280.45653 -0.00010222706            0    3343.1145    1.1710028 1.305047e+08 
   55600    283.23833 -5.1378751e-05            0    3376.2743    1.1766703 1.3116433e+08 
   55700    289.19901 -0.00010400994            0    3447.3271    1.1953279 1.3183425e+08 
   55800    284.43134 -0.00024977925            0    3390.4951    1.1693387 1.3254263e+08 
   55900    276.06181 -0.00071479466            0    3290.7277    1.1292241 1.3321234e+08 
   56000    279.03261 -0.0011695511            0      3326.14    1.1363473 1.3380181e+08 
   56100    283.89719 -0.00093402715            0    3384.1272    1.1512009  1.34378e+08 
   56200    285.55414 -0.0010281653            0    3403.8784    1.1526919 1.3498745e+08 
   56300    282.38709 -0.018813306            0    3366.1086    1.1345826 1.3561884e+08 
   56400    276.08006 -0.091884018            0    3290.8541    1.1042711 1.3622042e+08 
   56500    279.68655 -0.014913822            0    3333.9213    1.1144046 1.3675445e+08 
   56600    286.53884  -0.01451644            0    3415.6028    1.1372267 1.3729335e+08 
   56700    284.11279   -0.3130533            0    3386.3851    1.1225004 1.3788392e+08 
   56800    279.50684 -0.045453572            0    3331.7486    1.0998638 1.3846963e+08 
   56900    281.07942 -0.0051356824            0    3350.5344    1.1018082 1.3900794e+08 
   57000    289.42795 -0.002681941            0    3450.0535    1.1301594 1.3954629e+08 
   57100    285.54337 -0.021542364            0    3403.7295    1.1102448 1.401405e+08 
   57200    280.46261  -0.25837239            0    3342.9287    1.0857839 1.4072018e+08 
   57300    281.11963 -0.010086354            0    3351.0088    1.0845422 1.4124054e+08 
   57400    283.68643  -0.00419209            0    3381.6116    1.0906515 1.4173252e+08 
   57500    283.74346 -0.0013245417            0    3382.2943    1.0870701 1.422284e+08 
   57600    282.78291 -0.00041335172            0    3370.8452    1.0796424 1.4272222e+08 
   57700    282.55495 -0.00019854869            0    3368.1281     1.075168 1.4320068e+08 
   57800    284.04126 -0.00016283002            0    3385.8453    1.0773303 1.4366502e+08 
   57900    289.71424 -0.00090639214            0     3453.468    1.0952322 1.4413911e+08 
   58000    287.39327 -0.00066321863            0    3425.8016    1.0825292 1.4466227e+08 
   58100     278.8859 -0.00071844869            0    3324.3916    1.0468009 1.451713e+08 
   58200    280.23947 -0.00059063803            0    3340.5266    1.0488536 1.455904e+08 
   58300    284.85458 -0.0017762531            0    3395.5387    1.0633545 1.459698e+08 
   58400    284.87369 -0.00081612273            0    3395.7675    1.0605371 1.4636753e+08 
   58500    282.62943 -0.00024261373            0    3369.0159    1.0492876 1.4677135e+08 
   58600    282.11275 -0.00086203975            0    3362.8563    1.0446612 1.4715177e+08 
   58700    282.72918 -0.001950587            0    3370.2033     1.044412 1.4750835e+08 
   58800    283.67383 -0.00062164032            0     3381.465     1.045451 1.4785428e+08 
   58900    284.66132 -0.00050002233            0    3393.2363    1.0466364 1.4820095e+08 
   59000    285.08653 -0.000186154            0    3398.3052    1.0456981 1.4855554e+08 
   59100    281.94703 -0.00066296982            0    3360.8811    1.0317217 1.4890979e+08 
   59200    279.55944 -0.068351219            0    3332.3527    1.0207676 1.4922431e+08 
   59300    284.17751 -0.00018617387            0    3387.4694    1.0358417 1.4949091e+08 
   59400    288.71211 -9.1173145e-05            0    3441.5231    1.0503523 1.4977817e+08 
   59500     282.5572 -9.5103712e-05            0    3368.1551    1.0256528 1.5011516e+08 
   59600    277.19267 -0.00044615143            0     3304.208    1.0042162 1.5040868e+08 
   59700     280.3926 -0.010282714            0    3342.3423    1.0143992 1.5061639e+08 
   59800    284.29983 -0.003053827            0    3388.9246    1.0272797 1.5080137e+08 
   59900    285.45071 -0.00019781455            0    3402.6464    1.0299786 1.5101547e+08 
   60000    281.09215 -0.00088055588            0    3350.6905    1.0126426 1.5125534e+08 
   60100    275.17414 -0.0019058105            0    3280.1453   0.99003555 1.5145187e+08 
   60200    282.94614 -0.00016168972            0    3372.7913     1.017256 1.5156258e+08 
   60300     286.7958 -0.00018880672            0    3418.6802    1.0301926 1.5169555e+08 
   60400    282.96187 -0.00024908597            0    3372.9786    1.0151217 1.5188967e+08 
   60500    279.51353 -0.0041945256            0    3331.8695    1.0015053 1.5207804e+08 
   60600    283.51288  -0.89450373            0    3378.6526     1.014476 1.5222224e+08 
   60700    290.91489 -0.010674837            0    3467.7703    1.0402155 1.5239025e+08 
   60800    285.43499 -0.0036392062            0    3402.4555    1.0189207 1.5264549e+08 
   60900    281.74124 -0.00064147868            0     3358.428    1.0040483 1.5290234e+08 
   61000    282.17067 -0.00019921508            0    3363.5474    1.0042354 1.5310692e+08 
   61100    284.94698 -0.00013259328            0    3396.6418    1.0129997 1.5327568e+08 
   61200    288.19444 -0.00016616045            0    3435.3523    1.0233616 1.5345285e+08 
   61300    284.34134 -0.00020313345            0    3389.4223    1.0082641 1.5366826e+08 
   61400    277.73594 -0.00018316139            0    3310.6843   0.98364351 1.5385543e+08 
   61500    281.35288 -0.00012663763            0    3353.7991   0.99588102 1.5394387e+08 
   61600    286.86745 -8.704032e-05            0    3419.5344    1.0150281 1.5400036e+08 
   61700    285.02985 -0.00024727539            0    3397.6296    1.0079009 1.5409586e+08 
   61800    282.52531 -0.098518919            0    3367.6765   0.99827339 1.5420175e+08 
   61900    282.26808 -0.014252381            0    3364.6945   0.99692305 1.5428126e+08 
   62000    283.49916 -0.083258262            0    3379.3003    1.0008668 1.5433435e+08 
   62100    286.29527 -0.046248669            0    3412.6676    1.0104509 1.5438321e+08 
   62200    288.93835 -0.057905927            0    3444.1621    1.0191966 1.5446996e+08 
   62300    281.86577 -0.0023480112            0    3359.9108   0.99341566 1.5460694e+08 
   62400    278.54561 -0.00031837936            0    3320.3356   0.98113865 1.5469788e+08 
   62500     283.8191 -0.00055509831            0    3383.1967   0.99966125 1.5470598e+08 
   62600    287.69464 -0.0021378818            0    3429.3926     1.013273 1.5471166e+08 
   62700    283.76691 -0.013743939            0    3382.5614   0.99909475 1.5476343e+08 
   62800    281.62156    -0.981221            0    3356.0209   0.99105477 1.5480719e+08 
   62900     282.7044 -0.018223941            0    3369.8916   0.99504226 1.5481127e+08 
   63000    284.55686 -0.0027480079            0    3391.9888    1.0016772 1.5479566e+08 
   63100     284.3707 -0.00085839307            0    3389.7716    1.0010735 1.5478793e+08 
   63200    279.64892 -0.00072848328            0    3333.4869   0.98450304 1.5477983e+08 
   63300    277.84222 -0.0010460732            0    3311.9503   0.97859324 1.547085e+08 
   63400    286.46893 -0.002588464            0    3414.7814    1.0098988 1.5456716e+08 
   63500     287.7325 -0.0023541837            0    3429.8437    1.0149936 1.544697e+08 
   63600    282.77408 -0.00057603386            0    3370.7397   0.99770384 1.5443875e+08 
   63700    281.33495 -0.0002914799            0    3353.5852   0.99283599 1.5440616e+08 
   63800    282.95212 -0.00019146851            0    3372.8624   0.99891638 1.5434846e+08 
   63900    284.30833 -0.00014920727            0    3389.0289    1.0040885 1.542894e+08 
   64000    282.75583 -0.00013118792            0    3370.5227   0.99886678 1.5424905e+08 
   64100    275.31642 -7.6228084e-05            0    3281.8431   0.97294654 1.5419194e+08 
   64200    280.07892 -6.6185658e-05            0    3338.6133   0.99079879 1.540329e+08 
   64300    286.79249 -0.00023837935            0    3418.6406    1.0158409 1.5383692e+08 
   64400    285.02279 -0.0014643145            0    3397.5441    1.0104462 1.5370372e+08 
   64500    279.57538 -0.00038293081            0    3332.6106   0.99171927 1.5361321e+08 
   64600    280.19179 -0.00031679159            0    3339.9585   0.99468338 1.5349314e+08 
   64700    291.49579 -0.00075456021            0    3474.7047    1.0356565 1.5336803e+08 
   64800    288.03188 -0.0012123345            0    3433.4135    1.0232924 1.5337653e+08 
   64900    281.80628 -0.0014722338            0    3359.2025    1.0004137 1.5349316e+08 
   65000    280.75531 -0.00059040977            0    3346.6756   0.99581452 1.5362711e+08 
   65100    284.74444 -9.2650739e-05            0    3394.2275    1.0091029 1.5375822e+08 
   65200    289.88675 -5.4420317e-05            0    3455.5252    1.0260765 1.5394556e+08 
   65300    283.76082 -0.00016089675            0    3382.5024    1.0023521 1.5425904e+08 
   65400    277.15848 -0.0089591273            0     3303.792   0.97676899 1.546149e+08 
   65500    282.14091 -0.0005491845            0    3363.1922   0.99244899 1.5490884e+08 
   65600    286.23346 -8.6372316e-05            0     3411.977     1.005002 1.5519295e+08 
   65700    283.95536 -0.0001679111            0    3384.8214   0.99488909 1.5552274e+08 
   65800     279.3051 -0.00025609968            0     3329.389   0.97646859 1.5586157e+08 
   65900    275.82716 -0.00085522639            0    3287.9304   0.96268548 1.5612441e+08 
   66000    282.99853  -0.13850525            0    3373.2774    0.9867932 1.5625182e+08 
   66100    287.74431 -0.00063931776            0    3429.9862    1.0030087 1.5632209e+08 
   66200    283.42886 -0.00038554284            0    3378.5452   0.98744321 1.564049e+08 
   66300    278.68794 -0.00039154249            0    3322.0321   0.97072153 1.5643788e+08 
   66400    282.49597 -0.00018133021            0    3367.4251   0.98459763 1.5634067e+08 
   66500    290.70203 -0.00010223467            0    3465.2435    1.0143873 1.5615748e+08 
   66600    287.42453 -5.6603551e-05            0    3426.1749    1.0040022 1.5599393e+08 
   66700    283.90735 -2.8005772e-05            0    3384.2493   0.99278807 1.5582554e+08 
   66800     281.0766 -5.9912334e-05            0    3350.5059   0.98438456 1.5558883e+08 
   66900    281.71037 -0.0014094261            0    3358.0593   0.98888536 1.5522973e+08 
   67000    287.00138 -0.012042578            0    3421.1189    1.0105919 1.5474698e+08 
   67100    288.68789 -0.0014959452            0     3441.233     1.020048 1.5421476e+08 
   67200    279.62172 -0.0020186981            0    3333.1614   0.99158339 1.5365951e+08 
   67300    280.08045 -0.0030346133            0    3338.6286   0.99761214 1.5298134e+08 
   67400    285.38893  -0.30008615            0    3401.6099    1.0215801 1.5218705e+08 
   67500    286.50133 -0.00070238062            0    3415.1695    1.0312555 1.5138355e+08 
   67600    277.04084 -0.00047548424            0    3302.3982    1.0022275 1.5062457e+08 
   67700    278.11954 -0.00056842098            0    3315.2565    1.0113945 1.4984051e+08 
   67800    284.30055 -0.00054548547            0    3388.9358     1.039189 1.4907387e+08 
   67900    285.96619 -0.00081176556            0    3408.7903    1.0496583 1.4845163e+08 
   68000    281.65337 -0.0008470562            0    3357.3804    1.0367929 1.4802708e+08 
   68100    276.19227 -0.00050213387            0     3292.283    1.0185737 1.4775338e+08 
   68200    281.88035 -0.0012126182            0    3360.0856    1.0408547 1.4756821e+08 
   68300    288.94282 -0.00019145984            0    3444.2731     1.067031 1.4755481e+08 
   68400     283.5646 -0.00018241398            0    3380.1633    1.0453286 1.4781471e+08 
   68500    278.59617 -0.00016165053            0    3320.9385    1.0237477 1.4828619e+08 
   68600    282.02331 -0.00013619666            0    3361.7909    1.0321059 1.4889471e+08 
   68700    286.93973 -0.00064536742            0    3420.3953     1.044682 1.496666e+08 
   68800     284.4478 -0.00052414984            0     3390.691    1.0290099 1.5062649e+08 
   68900    281.80229 -0.0012686353            0    3359.1551    1.0123736 1.5167771e+08 
   69000    281.94777 -0.00023406539            0    3360.8903    1.0061432 1.5269589e+08 
   69100    286.64035 -0.00033328046            0     3416.827    1.0167676 1.5361515e+08 
   69200    291.04741 -0.0014911845            0    3469.3591    1.0267667 1.5445783e+08 
   69300     280.6944 -0.0010789513            0     3345.949    0.9852943 1.5523367e+08 
   69400    277.61573 -0.00036446869            0    3309.2511   0.97092599 1.5580319e+08 
   69500    283.66438 -0.00049219693            0    3381.3524   0.98992504 1.561424e+08 
   69600    286.28759 -0.00028331478            0     3412.622   0.99766223 1.5636424e+08 
   69700    282.84974 -0.00013788653            0    3371.6421   0.98467884 1.5652355e+08 
   69800    276.82333 -0.00020745966            0    3299.8057   0.96334035 1.5658185e+08 
   69900    275.91729 -0.00054693474            0    3289.0051   0.96083242 1.5647668e+08 
   70000    286.49897 -0.00089626589            0    3415.1412   0.99914735 1.5624702e+08 
   70100    286.94545 -0.00056243231            0    3420.4637    1.0020193 1.5604204e+08 
   70200    280.78501 -0.00027313165            0    3347.0299   0.98157735 1.558719e+08 
   70300    279.57888 -0.00014446757            0    3332.6527   0.97870374 1.5565806e+08 
   70400    286.04759 -0.00011608769            0    3409.7614    1.0030236 1.5539808e+08 
   70500      291.006 -0.00012064151            0    3468.8668    1.0217616 1.5519255e+08 
   70600    278.83589 -0.00025624837            0    3323.7959   0.97971123 1.5508473e+08 
   70700    279.02146 -0.00019224802            0     3326.008   0.98133431 1.5493128e+08 
   70800    285.74856 -0.00010705571            0    3406.1968    1.0063157 1.5472778e+08 
   70900     286.9401 -6.383976e-05            0    3420.4004    1.0115375 1.5457092e+08 
   71000    280.48728 -9.4538673e-05            0     3343.481   0.98942134 1.5447223e+08 
   71100     278.4911 -0.025618993            0    3319.6606   0.98316463 1.5434538e+08 
   71200    285.05501 -0.00011809118            0    3397.9296    1.0075003 1.5417076e+08 
   71300    287.90597 -0.00012741201            0    3431.9137     1.018431 1.5404144e+08 
   71400    284.98647 -0.00025238436            0    3397.1124    1.0083833 1.539987e+08 
   71500    280.89835 -8.9217819e-05            0    3348.3811   0.99394278 1.5399489e+08 
   71600    280.54409 -8.0210826e-05            0    3344.1582   0.99284726 1.5397039e+08 
   71700    286.25509 -0.00059548178            0    3412.2343     1.013353 1.5392558e+08 
   71800    288.64742 -0.00047199957            0    3440.7517    1.0217291 1.5393958e+08 
   71900    278.77254 -0.00011895239            0    3323.0408   0.98617976 1.5403252e+08 
   72000    278.14395 -0.00028983753            0    3315.5477   0.98364838 1.5408068e+08 
   72100    283.55252 -0.0018682331            0    3380.0177     1.002894 1.5406227e+08 
   72200    285.64121 -0.0080592276            0    3404.9092    1.0103353 1.5405323e+08 
   72300    282.67045 -0.00020482946            0    3369.5049    0.9996211 1.540861e+08 
   72400    275.24645 -9.5016728e-05            0    3281.0089   0.97320381 1.5411199e+08 
   72500    275.94542 -0.00010690792            0    3289.3409   0.97622187 1.5402569e+08 
   72600    286.24807 -0.000200517            0     3412.151    1.0138389 1.5384808e+08 
   72700    285.32287 -0.00035601211            0    3401.1223    1.0114446 1.5371382e+08 
   72800    280.32374 -0.011808586            0    3341.5198   0.99430771 1.5362186e+08 
   72900    279.82923 -0.0013505703            0    3335.6356   0.99331187 1.5350604e+08 
   73000     287.9668 -0.00060548456            0    3432.6383    1.0231368 1.5336528e+08 
   73100    289.20956 -0.00038596327            0    3447.4526    1.0279149 1.533112e+08 
   73200    282.92119 -0.00020196183            0    3372.4938    1.0051511 1.533743e+08 
   73300    282.01833 -0.0001276524            0    3361.7315    1.0012548 1.5347981e+08 
   73400     283.3324 -0.00010136548            0    3377.3956    1.0050857 1.5360724e+08 
   73500    285.33412 -5.4633643e-05            0    3401.2567    1.0110701 1.5377686e+08 
   73600    284.71839 -2.6529747e-05            0     3393.917    1.0072934 1.5402034e+08 
   73700    279.01286 -2.0564844e-05            0    3325.9057   0.98515193 1.5432616e+08 
   73800    278.76466 -3.680841e-05            0     3322.947   0.98244497 1.5461372e+08 
   73900    286.86124 -6.716017e-05            0    3419.4603    1.0092835 1.5487354e+08 
   74000      286.369 -4.2438609e-05            0    3413.5928    1.0054034 1.5520445e+08 
   74100    282.02134 -2.2984379e-05            0    3361.7675   0.98754143 1.5561276e+08 
   74200    281.13084 -2.1446017e-05            0    3351.1525   0.98177419 1.5603263e+08 
   74300    282.88203 -8.5136074e-05            0    3372.0271   0.98535633 1.5643379e+08 
   74400    283.45381 -0.00055299365            0    3378.8424   0.98488545 1.5682487e+08 
   74500    282.98113 -0.00086752546            0    3373.2076   0.98087695 1.5720312e+08 
   74600     282.8199 -0.012549499            0    3371.2741   0.97816114 1.5754814e+08 
   74700    283.99284  -0.34396395            0    3384.9243   0.98013256 1.5784197e+08 
   74800    287.44512 -0.0063192532            0    3426.4141    0.9907504 1.5809089e+08 
   74900    285.29664 -0.0059319727            0     3400.804   0.98186861 1.5832867e+08 
   75000    278.54037 -0.049935424            0    3320.2236   0.95748313 1.5850984e+08 
   75100    280.33162  -0.70916993            0    3340.9164   0.96321115 1.5851677e+08 
   75200     287.7405 -0.026058091            0    3429.9154   0.99019402 1.5833955e+08 
   75300    286.84612 -0.002593885            0    3419.2776   0.98892125 1.5805377e+08 
   75400    283.94935 -0.011459591            0    3384.7385    0.9814703 1.5764416e+08 
   75500    282.07932 -0.0022849325            0    3362.4564   0.97872317 1.5704678e+08 
   75600    282.11078 -0.00026431502            0    3362.8334   0.98403787 1.5621629e+08 
   75700    284.45888 -0.0002844817            0    3390.8234   0.99895929 1.5516371e+08 
   75800    286.12961 -0.0004119211            0    3410.7388    1.0125183 1.5398497e+08 
   75900    281.63962 -0.0035250038            0    3357.2138    1.0043298 1.5280395e+08 
   76000    279.40675 -0.00034737791            0    3330.6006     1.003777 1.5167642e+08 
   76100    284.35075 -0.00092418734            0    3389.5337    1.0283673 1.5066914e+08 
   76200    291.71666 -0.0037401333            0    3477.3345    1.0603368 1.4991136e+08 
   76300    283.50072 -0.0038933875            0    3379.3982    1.0333951 1.4948748e+08 
   76400     279.3181 -0.00036943827            0    3329.5439    1.0196233 1.4927179e+08 
   76500    283.38165 -0.00035287716            0    3377.9824    1.0351267 1.4917521e+08 
   76600     287.0625 -0.0012752639            0    3421.8582    1.0481555 1.4923436e+08 
   76700    283.03239 -0.0011909451            0    3373.8183    1.0317891 1.4947319e+08 
   76800    275.65816 -0.0051641024            0    3285.9116    1.0026591 1.4980768e+08 
   76900     280.7546 -0.0047890262            0    3346.6629    1.0189744 1.5013443e+08 
   77000    284.54139 -0.0011156958            0     3391.806    1.0301944 1.5050274e+08 
   77100    283.20169 -0.00039543083            0    3375.8372    1.0222834 1.5095342e+08 
   77200    281.45723 -8.4839615e-05            0    3355.0431    1.0126609 1.5144917e+08 
   77300    282.92284 -4.7653545e-05            0    3372.5136    1.0145903 1.5194831e+08 
   77400     288.1289 -5.8053455e-05            0    3434.5711    1.0297938 1.524597e+08 
   77500     286.1969 -1.1546068e-05            0    3411.5413    1.0190886 1.5302822e+08 
   77600    277.00875 -6.8429117e-06            0    3302.0161   0.98274728 1.5359256e+08 
   77700    279.12125 -8.9398697e-06            0    3327.1977   0.98745193 1.5402651e+08 
   77800    283.41323 -2.5861778e-05            0    3378.3592    1.0005181 1.5435253e+08 
   77900    284.21145 -9.2529885e-05            0    3387.8741    1.0015042 1.5463483e+08 
   78000    282.84583 -0.00044587564            0    3371.5952   0.99507401 1.5488622e+08 
   78100     279.6485 -0.0053241243            0    3333.4773   0.98256628 1.5508404e+08 
   78200    278.91591  -0.95109769            0    3323.7989   0.97905162 1.5518545e+08 
   78300    286.07311 -0.0074806059            0    3410.0582    1.0043955 1.5519867e+08 
   78400    287.44241 -0.00046527322            0    3426.3876     1.009056 1.5522225e+08 
   78500    280.83068 -0.0001262555            0    3347.5744   0.98552256 1.5527319e+08 
   78600    279.04132 -0.010539801            0    3326.2344   0.97929405 1.5526367e+08 
   78700    282.33225 -0.00063938068            0     3365.473   0.99145016 1.5517005e+08 
   78800    283.68993 -0.0016207366            0     3381.656   0.99704304 1.550415e+08 
   78900    283.62561 -0.027558315            0    3380.8633    0.9976667 1.5490591e+08 
   79000    281.86218 -0.00077595892            0    3359.8695   0.99239106 1.5476481e+08 
   79100    279.02251 -0.00026440989            0    3326.0205   0.98348486 1.5459307e+08 
   79200    282.05974 -5.5256006e-05            0    3362.2252   0.99568825 1.5436053e+08 
   79300    288.49767 -2.7116741e-05            0    3438.9671    1.0199956 1.5412126e+08 
   79400    285.12809 -3.7078005e-05            0    3398.8008    1.0091114 1.5396409e+08 
   79500    278.78736 -4.2117438e-05            0    3323.2176   0.98743375 1.5384509e+08 
   79600    280.87925 -3.2113207e-05            0    3348.1535   0.99589539 1.5368252e+08 
   79700    284.03397 -3.4769461e-05            0    3385.7586    1.0082687 1.5350147e+08 
   79800    284.69339 -4.689884e-05            0     3393.619    1.0115891 1.5335283e+08 
   79900    280.59626 -5.826741e-05            0    3344.7801   0.99770645 1.5324899e+08 
   80000    274.04952 -5.5583546e-05            0    3266.7413   0.97521803 1.5312491e+08 
   80100    282.02422 -4.1982595e-05            0    3361.8019    1.0050447 1.5290425e+08 
   80200     286.0194 -3.5554468e-05            0    3409.4254    1.0207502 1.5268436e+08 
   80300    283.42939 -4.987993e-05            0    3378.5518    1.0124603 1.5254058e+08 
   80400     279.7917 -8.8504486e-05            0    3335.1895    1.0000944 1.5244471e+08 
   80500    281.66494 -0.00025812726            0    3357.5188    1.0074147 1.5235017e+08 
   80600    290.42179 -0.0019682083            0    3461.9011    1.0390932 1.5229741e+08 
   80700    286.46496 -0.00027595153            0    3414.7364     1.024226 1.5240323e+08 
   80800    280.95372 -9.3997854e-05            0    3349.0411    1.0029802 1.526374e+08 
   80900    281.61972 -8.7487186e-05            0      3356.98    1.0034658 1.5292519e+08 
   81000    284.51278 -0.00016534944            0    3391.4659    1.0114863 1.532711e+08 
   81100    286.35707  -0.80739518            0    3412.6432    1.0146446 1.5371786e+08 
   81200    282.89713 -0.00033198271            0    3372.2068   0.99909443 1.5429094e+08 
   81300    277.42301 -0.00034695538            0    3306.9539   0.97573039 1.5492841e+08 
   81400    281.77454 -0.0076038454            0     3358.818   0.98717002 1.5553402e+08 
   81500    286.73463  -0.00201338            0    3417.9491    1.0006715 1.5613721e+08 
   81600    284.02185 -0.0019716042            0    3385.6122   0.98710341 1.5678586e+08 
   81700    280.08427 -0.00018585587            0    3338.6769   0.96950676 1.5741871e+08 
   81800    282.64248 -0.00024792649            0    3369.1714   0.97507754 1.5794895e+08 
   81900    290.82031 -6.1624768e-05            0    3466.6535    1.0004261 1.5840112e+08 
   82000    284.54521 -6.2101003e-05            0    3391.8527   0.97602466 1.5885798e+08 
   82100    279.48184 -8.5200655e-05            0    3331.4959   0.95645335 1.5922393e+08 
   82200    281.99492 -0.00010763614            0    3361.4525   0.96397333 1.5940237e+08 
   82300    286.79002 -0.0001583423            0    3418.6113   0.98029728 1.5941337e+08 
   82400    284.83859 -0.00077607343            0    3395.3491   0.97421952 1.5931632e+08 
   82500    275.00719 -0.0007662783            0    3278.1562   0.94211923 1.5905833e+08 
   82600    280.90566 -0.00011375194            0    3348.4682   0.96565694 1.5850981e+08 
   82700    286.87982 -7.3031916e-05            0    3419.6818   0.99097254 1.5774548e+08 
   82800    285.09192 -0.00074971811            0    3398.3689   0.99019227 1.568858e+08 
   82900    280.33436 -0.098602977            0    3341.5596   0.97938529 1.5595663e+08 
   83000    281.33502  -0.01645603            0      3353.57   0.98928993 1.5495743e+08 
   83100     284.1001 -0.0087780765            0    3386.5381    1.0054099 1.539726e+08 
   83200    284.44029  -0.19106464            0     3390.411     1.012159 1.5310571e+08 
   83300    282.76668  -0.40885591            0    3370.2433    1.0107174 1.5239812e+08 
   83400    280.42416 -0.040576055            0    3342.6882    1.0063387 1.5183579e+08 
   83500    280.64229 -0.0017650124            0    3345.3271    1.0101449 1.5138655e+08 
   83600    287.11374 -0.00019827959            0    3422.4701    1.0356904 1.5105757e+08 
   83700    287.84687 -4.3923632e-05            0    3431.2093    1.0393063 1.5091641e+08 
   83800    279.87608 -2.8066445e-05            0    3336.1955    1.0103489  1.50943e+08 
   83900    279.46175 -2.1930113e-05            0    3331.2565     1.008328 1.5102161e+08 
   84000    283.31524 -1.9763299e-05            0    3377.1911    1.0214823 1.5113243e+08 
   84100    284.32667 -1.8663443e-05            0    3389.2476    1.0238715 1.5131803e+08 
   84200    283.11174 -2.0200969e-05            0    3374.7654     1.017713 1.5158321e+08 
   84300    282.21272 -2.9373333e-05            0    3364.0488    1.0123721 1.5189902e+08 
   84400    284.19515 -9.2861387e-05            0    3387.6798    1.0171867 1.5224201e+08 
   84500    291.62198 -0.00068275478            0     3476.209    1.0410271 1.5264287e+08 
   84600    285.11235 -0.011287637            0    3398.6019    1.0143127 1.531646e+08 
   84700    279.13067 -0.027543571            0    3327.2825   0.98954396 1.5370228e+08 
   84800    281.63657 -0.0056603814            0    3357.1753    0.9955278 1.5415301e+08 
   84900    286.50798 -0.0013538968            0    3415.2481    1.0101883 1.545441e+08 
   85000    285.00419 -0.0006514398            0    3397.3232    1.0023639 1.5493307e+08 
   85100    274.48083 -0.00015170299            0    3271.8826   0.96318246 1.552823e+08 
   85200    274.06555 -9.5355233e-05            0    3266.9324   0.96067231 1.554525e+08 
   85300    280.61525 -9.0166994e-05            0    3345.0065   0.98371079 1.5543985e+08 
   85400    285.65853 -0.0003637714            0    3405.1235    1.0019337 1.5535551e+08 
   85500     285.7121 -0.00030082161            0     3405.762    1.0026044 1.5528069e+08 
   85600     279.9265 -0.00084023275            0    3336.7957   0.98272074 1.5521444e+08 
   85700    278.30788 -0.0012014274            0     3317.501   0.97788283 1.5508035e+08 
   85800    288.42552 -0.0023072027            0    3438.1047    1.0147974 1.5487168e+08 
   85900    288.77347  -0.87177672            0    3441.3829    1.0178838 1.5471975e+08 
   86000    283.00624 -0.0032632855            0    3373.5045   0.99720143 1.5464305e+08 
   86100    280.90837 -0.00025880471            0    3348.5003   0.99033287 1.5456172e+08 
   86200     283.2917 -6.8427914e-05            0    3376.9105   0.99949647 1.5444403e+08 
   86300    289.92538 -4.616122e-05            0    3455.9856     1.023644 1.5433194e+08 
   86400    289.86407 -4.3096849e-05            0    3455.2548    1.0234966 1.5432153e+08 
   86500    279.70794 -5.1192634e-05            0    3334.1912   0.98713249 1.5440021e+08 
   86600    280.61172 -0.00010082162            0    3344.9644   0.99007514 1.5443871e+08 
   86700    285.86864 -0.00066907738            0    3407.6277    1.0086172 1.5443953e+08 
   86800    286.47346 -0.099991081            0    3414.7379    1.0104324 1.5447504e+08 
   86900    277.55373  -0.33932328            0    3308.1732   0.97831286 1.545495e+08 
   87000    276.71778 -0.0013336462            0    3298.5464   0.97566915 1.5454413e+08 
   87100    282.16066 -0.00013978578            0    3363.4282   0.99559185 1.544307e+08 
   87200    284.54322 -4.6158827e-05            0     3391.829    1.0049667 1.5428194e+08 
   87300    283.97038 -3.0775899e-05            0    3385.0006    1.0038691 1.5413969e+08 
   87400     279.6272 -0.00038382812            0    3333.2283   0.98943169 1.5399691e+08 
   87500    276.66737 -0.0025585802            0    3297.9443   0.98027936 1.5378913e+08 
   87600    285.58987 -0.00045979482            0    3404.3048    1.0139286 1.5348071e+08 
   87700     288.1076 -0.00073248114            0    3434.3166    1.0248408 1.5318512e+08 
   87800    282.70061 -0.00013317656            0    3369.8645    1.0070887 1.5295989e+08 
   87900    280.61985 -0.00023777884            0    3345.0612    1.0010816 1.5274513e+08 
   88000    282.93471  -0.01325256            0    3372.6419     1.010879 1.5251077e+08 
   88100     284.8184 -0.0018268412            0    3395.1073    1.0190828 1.5229177e+08 
   88200    283.37348 -0.00010647057            0    3377.8853    1.0150253 1.521251e+08 
   88300    272.07784 -0.00010859497            0    3243.2384   0.97545447 1.5198639e+08 
   88400    276.53835 -0.00011743945            0    3296.4087   0.99306121 1.5173922e+08 
   88500    284.82338 -0.00014338786            0    3395.1684    1.0250205 1.5141245e+08 
   88600    286.26893 -0.0002307631            0    3412.3996    1.0321278 1.5113296e+08 
   88700     281.4644 -0.00057900303            0    3355.1281    1.0160731 1.5094435e+08 
   88800     278.4884 -0.0024710344            0    3319.6515    1.0062942 1.5079944e+08 
   88900    285.73397 -0.0011790051            0    3406.0219    1.0333738 1.5066853e+08 
   89000    290.12527 -0.00057079291            0    3458.3679    1.0492868 1.5066407e+08 
[...]
  190700    284.49822 -0.0015160973            0    3391.2911    1.0212213 1.5180206e+08 
  190800    286.87591 -0.0004180733            0    3419.6348    1.0320617 1.5146309e+08 
  190900    281.73869 -0.00010593342            0    3358.3982    1.0150365 1.5124581e+08 
  191000    276.88099 -0.0001008995            0    3300.4931   0.99858107 1.5108743e+08 
  191100    287.03006 -0.00044042643            0    3421.4724    1.0362405 1.5093335e+08 
  191200    289.57479 -0.0055133547            0    3451.8011    1.0455671 1.5091254e+08 
  191300    281.63867 -0.005698694            0    3357.2002    1.0157394 1.5108674e+08 
  191400    279.16151 -0.0037365079            0    3327.6739    1.0049822 1.513611e+08 
  191500    284.12884 -0.021113303            0    3386.8684    1.0205793 1.5169772e+08 
  191600    287.53084 -0.00018642278            0     3427.442    1.0296583 1.5216325e+08 
  191700     281.9323 -0.00016187927            0     3360.706    1.0053798 1.5280346e+08 
  191800    272.43763 -0.00019858504            0     3247.527   0.96700697 1.5351682e+08 
  191900    277.88657 -0.00024832573            0    3312.4797   0.98229076 1.5415086e+08 
  192000    281.72417 -0.00026263662            0    3358.2249   0.99215055 1.547266e+08 
  192100    285.71721 -0.00023045272            0     3405.823    1.0025433 1.5529294e+08 
  192200    285.32215 -0.00022129091            0    3401.1138   0.99734759 1.5588611e+08 
  192300    280.18849 -0.00029252499            0    3339.9192   0.97571036 1.5647603e+08 
  192400    278.77563 -0.0020564171            0    3323.0757   0.96775467 1.5696661e+08 
  192500    287.31387 -0.031190855            0    3424.8247   0.99508378 1.5732717e+08 
  192600    287.50347 -0.00054465833            0    3427.1154   0.99370461 1.5765369e+08 
  192700    282.40749 -0.00072625199            0    3366.3699   0.97426186 1.579497e+08 
  192800    281.24871 -0.00072896867            0    3352.5568   0.96912881 1.5813474e+08 
  192900    283.19622 -0.00026362232            0    3375.7722   0.97556621 1.5817912e+08 
  193000     284.8319 -0.002435571            0    3395.2677   0.98166097 1.5810468e+08 
  193100    282.12074 -0.00045267226            0    3362.9519   0.97338519 1.5793146e+08 
  193200    276.74239 -9.0291536e-05            0    3298.8409   0.95677273 1.576106e+08 
  193300    282.41053 -0.00013991205            0    3366.4066   0.97970238 1.5707433e+08 
  193400    288.11436 -0.00014974998            0    3434.3978    1.0037384 1.564094e+08 
  193500    284.39505 -0.00013321781            0    3390.0626   0.99514692 1.5572321e+08 
  193600    280.10054 -0.0015546596            0    3338.8695   0.98470117 1.5499848e+08 
  193700    282.15447 -0.0072521119            0    3363.3472   0.99698171 1.5421105e+08 
  193800    284.37697 -0.00031958147            0    3389.8469    1.0099746 1.5342722e+08 
  193900    284.07447 -7.4457158e-05            0    3386.2413    1.0135737 1.5271982e+08 
  194000    279.95522 -4.4797054e-05            0    3337.1388    1.0028718 1.5211137e+08 
  194100    272.72792 -0.00011424607            0    3250.9875   0.98059803 1.5155041e+08 
  194200    281.15726 -0.0022205843            0    3351.4653    1.0147478 1.5097633e+08 
  194300    285.50177 -0.0029626371            0    3403.2522    1.0336556 1.5050481e+08 
  194400    283.71324 -0.004348455            0    3381.9311      1.02919 1.5021073e+08 
  194500    279.95591 -0.098499624            0    3337.0486    1.0164854 1.5006161e+08 
  194600     280.7222  -0.15589842            0    3346.1255    1.0196385 1.4999989e+08 
  194700    289.24355 -0.0064917582            0    3447.8516    1.0504382 1.5004077e+08 
  194800    287.38206 -0.00051206673            0    3425.6682    1.0420354 1.5027805e+08 
  194900    280.87083 -0.00010628783            0     3348.053    1.0157307 1.5067687e+08 
  195000    281.04732 -6.1506519e-05            0    3350.1569    1.0132878 1.5113504e+08 
  195100    283.75295 -0.00018089957            0    3382.4086    1.0196876 1.5163231e+08 
  195200    285.40016 -0.0018870078            0     3402.042    1.0218607 1.5218798e+08 
  195300    282.94331 -0.0010973765            0    3372.7565     1.008999 1.5280122e+08 
  195400    276.98654 -0.00072421836            0    3301.7507   0.98387849 1.5340357e+08 
  195500    281.02019 -0.0029009538            0    3349.8307    0.9949711 1.5390208e+08 
  195600    286.71125  -0.11829957            0    3417.5541    1.0121413 1.5433998e+08 
  195700    284.37653 -0.021094391            0    3389.8209    1.0010986 1.5478447e+08 
  195800    279.79886  -0.25549596            0    3335.0195   0.98220216 1.5519262e+08 
  195900    280.52599 -0.0011369647            0    3343.9415   0.98305613 1.5549374e+08 
  196000    289.90624 -0.00051132997            0     3455.757    1.0144872 1.557146e+08 
  196100    286.09355 -0.00056205163            0    3410.3087   0.99953869 1.5596487e+08 
  196200    279.76362 -0.015024922            0    3334.8399   0.97598792 1.5619226e+08 
  196300    281.08039 -0.0017522624            0    3350.5495    0.9798752 1.5630673e+08 
  196400    285.88819 -0.00091521942            0    3407.8605   0.99649749 1.5632852e+08 
  196500    286.20031 -0.00074329075            0    3411.5812   0.99758774 1.5632818e+08 
  196600    275.28932 -0.00068165379            0    3281.5194   0.95976662 1.5629389e+08 
  196700    278.67249 -0.00074987215            0    3321.8476    0.9727711 1.5609957e+08 
  196800    285.90648 -0.0005142788            0    3408.0789    1.0000114 1.5578922e+08 
  196900    285.67017 -0.00089785381            0    3405.2616    1.0012024 1.5547523e+08 
  197000    280.49869 -0.00029041085            0    3343.6169   0.98504418 1.5516493e+08 
  197100    278.95258 -0.00016787642            0     3325.187    0.9819568 1.5479484e+08 
  197200    289.74055 -0.00040728027            0    3453.7822    1.0227752 1.5436453e+08 
  197300    289.68973 -0.00028139544            0    3453.1765     1.024883 1.5402006e+08 
  197400    282.43807 -9.4979298e-05            0    3366.7349    1.0007737 1.5378213e+08 
  197500    280.92646 -5.6038915e-05            0    3348.7162   0.99687652 1.5355707e+08 
  197600    283.83052 -6.6704836e-05            0    3383.3334    1.0087225 1.5332251e+08 
  197700    288.65148 -0.00011401657            0    3440.8003    1.0271582 1.5312812e+08 
  197800     286.4342 -0.00025589715            0    3414.3697    1.0198137 1.5304617e+08 
  197900    278.11979 -0.00053553755            0    3315.2595   0.99023784 1.5304203e+08 
  198000    280.65329 -0.0015568355            0    3345.4585   0.99946747 1.5300987e+08 
  198100     286.3568 -0.019207142            0    3413.4281    1.0199666 1.5297935e+08 
  198200    285.35733 -0.0097848955            0    3401.5236    1.0160727 1.5303088e+08 
  198300    281.32582 -0.024017446            0    3353.4528    1.0008645 1.5315938e+08 
  198400    281.10654 -0.071406593            0    3350.7915   0.99905017 1.5331158e+08 
  198500    282.48664    -0.264927            0    3367.0491    1.0027173 1.5347701e+08 
  198600    284.20902 -0.035731884            0    3387.8095    1.0077122 1.5367609e+08 
  198700    284.52518 -0.013313696            0    3391.6006    1.0071563 1.5393496e+08 
  198800    281.20256 -0.010178931            0    3351.9972   0.99331924 1.5425705e+08 
  198900    277.87928 -0.0024917185            0    3312.3906   0.97947682 1.5458935e+08 
  199000    284.07186 -0.00079501545            0    3386.2095   0.99941796 1.5488142e+08 
  199100    287.91704 -0.00028841461            0    3432.0455    1.0108287 1.552059e+08 
  199200    283.14338 -0.00026230496            0    3375.1423   0.99142632 1.5561965e+08 
  199300    279.98306 -0.00069449076            0      3337.47   0.97761977 1.5605586e+08 
  199400    281.65362 -0.0004459332            0    3357.3837   0.98096629 1.5645146e+08 
  199500    282.90969 -0.00016024294            0    3372.3568   0.98310448 1.5680743e+08 
  199600    283.53553 -0.00034629053            0    3379.8167   0.98325418 1.5713036e+08 
  199700    283.66147 -0.0010706286            0    3381.3173   0.98189832 1.5741713e+08 
  199800    282.91505 -0.0011373676            0    3372.4196   0.97783137 1.5765589e+08 
  199900     281.7791 -0.00092504284            0    3358.8791   0.97289593 1.5781948e+08 
  200000    282.99844 -0.00036315693            0    3373.4144   0.97676461 1.578747e+08 
Loop time of 645.667 on 2 procs for 200000 steps with 4000 atoms

Performance: 26.763 ns/day, 0.897 hours/ns, 309.757 timesteps/s
99.9% CPU use with 2 MPI tasks x no OpenMP threads

MPI task timing breakdown:
Section |  min time  |  avg time  |  max time  |%varavg| %total
---------------------------------------------------------------
Pair    | 13.555     | 13.688     | 13.821     |   3.6 |  2.12
Neigh   | 582.7      | 583.02     | 583.34     |   1.3 | 90.30
Comm    | 17.454     | 17.88      | 18.305     |  10.1 |  2.77
Output  | 0.053447   | 0.076083   | 0.098719   |   8.2 |  0.01
Modify  | 25.126     | 25.161     | 25.195     |   0.7 |  3.90
Other   |            | 5.839      |            |       |  0.90

Nlocal:    2000 ave 2031 max 1969 min
Histogram: 1 0 0 0 0 0 0 0 0 1
Nghost:    177.5 ave 188 max 167 min
Histogram: 1 0 0 0 0 0 0 0 0 1
Neighs:    18.5 ave 20 max 17 min
Histogram: 1 0 0 0 0 0 0 0 0 1

Total # of neighbors = 37
Ave neighs/atom = 0.00925
Neighbor list builds = 200000
Dangerous builds not checked
WARNING: One or more atoms are time integrated more than once (../modify.cpp:266)
Setting up Verlet run ...
  Unit style  : real
  Current step: 0
  Time step   : 1
Memory usage per processor = 18.8168 Mbytes
Step Temp E_pair E_mol TotEng Press Volume 
       0    282.99844 -0.00036315693            0    3373.4144   0.97676461 1.578747e+08 
     100    285.20084 -7.6550403e-05            0    3399.6679   0.98499564 1.5777385e+08 
     200     280.0606 -5.2837063e-05            0    3338.3949   0.96900952 1.574862e+08 
     300    284.72953 -9.9006108e-05            0    3394.0498   0.98884469    1.569e+08 
     400    284.75797 -4.2660342e-05            0    3394.3888   0.99398252 1.5610459e+08 
     500    282.11679 -7.2553956e-05            0    3362.9052   0.99085003 1.5514563e+08 
     600    283.43668 -0.0016998939            0     3378.637    1.0029336 1.5399328e+08 
     700    284.46827 -0.00014716752            0    3390.9355    1.0148371 1.5274113e+08 
     800    277.83509 -0.0062778646            0      3311.86   0.99935233 1.514902e+08 
     900    279.99459 -0.00056669688            0    3337.6076    1.0159876 1.5016876e+08 
    1000     286.6064 -0.0047265307            0    3416.4179     1.048555 1.4894003e+08 
    1100    278.04325 -0.044728974            0    3314.3029    1.0231768 1.4806856e+08 
    1200    283.19432 -0.00016220117            0    3375.7496    1.0465283 1.4745247e+08 
    1300    286.19566 -3.4944178e-05            0    3411.5264    1.0591782 1.472355e+08 
    1400    280.96081 -0.00013524189            0    3349.1256    1.0376416 1.4754241e+08 
    1500    282.94218 -9.4888876e-05            0    3372.7441    1.0398031 1.4827404e+08 
    1600    290.00664 -0.0034993713            0    3456.9508     1.057115 1.4948683e+08 
    1700     279.5803 -5.9495274e-05            0    3332.6696    1.0072895 1.5124144e+08 
    1800    285.52762 -0.00020977281            0    3403.5631    1.0157614 1.5317043e+08 
    1900    281.00309 -6.8535773e-05            0    3349.6296   0.98735398 1.5508034e+08 
    2000    281.31525 -0.046038755            0    3353.3047   0.97851792 1.5664817e+08 
    2100    286.93487  -0.09048801            0    3420.2476   0.99085244 1.5778265e+08 
    2200     280.9222  -0.66735543            0    3347.9982   0.96671456 1.5860418e+08 
    2300    280.85732 -0.00015114655            0    3347.8919   0.96253701 1.5899622e+08 
    2400    287.73406 -0.00017128598            0    3429.8645   0.98580811 1.5904403e+08 
    2500    278.48142 -0.00030602402            0    3319.5705   0.95498262 1.5889828e+08 
    2600    285.87451 -0.00018792671            0    3407.6981   0.98347023 1.583918e+08 
    2700    285.02106 -0.0069919283            0     3397.518   0.98468196 1.5772366e+08 
    2800    277.90532 -0.00015816027            0    3312.7033   0.96509791 1.569076e+08 
    2900    288.20548 -0.0036812705            0    3435.4804    1.0076964 1.5584385e+08 
    3000    286.40455 -0.054451051            0    3413.9621    1.0079067 1.5483088e+08 
    3100     279.0814 -0.0012927018            0    3326.7214   0.98810371 1.5390276e+08 
    3200    284.41846 -0.0010344274            0    3390.3407    1.0133929 1.529319e+08 
    3300    290.01305 -0.00015551675            0    3457.0306    1.0388596 1.521175e+08 
    3400    276.08831 -0.00099124598            0    3291.0432    0.9924018 1.5159282e+08 
    3500    283.62067  -0.19535045            0    3380.6366    1.0226917 1.5109163e+08 
    3600    288.20447 -0.00042984782            0    3435.4716     1.041449 1.5079297e+08 
    3700    277.81592  -0.15229959            0    3311.4855    1.0036396 1.5081356e+08 
    3800    285.22564 -0.0038175053            0    3399.9597    1.0297957 1.5092271e+08 
    3900    288.59657 -0.00019364473            0    3440.1457    1.0394226 1.5129254e+08 
    4000    280.34254 -0.00040770563            0    3341.7554    1.0050118 1.5199743e+08 
    4100    283.05807 -7.775942e-05            0    3374.1255    1.0094394 1.5279664e+08 
    4200    288.45691 -7.413197e-05            0    3438.4811    1.0225747 1.5371082e+08 
    4300    280.72977 -0.00028128639            0    3346.3714   0.98811174 1.5481066e+08 
    4400    281.35166 -0.0047017477            0      3353.78    0.9837146 1.5584652e+08 
    4500     286.7013 -8.250732e-05            0    3417.5538   0.99664668 1.5674979e+08 
    4600    281.45245 -0.005992897            0    3354.9802   0.97318466 1.5758904e+08 
    4700    282.78634 -0.019920098            0    3370.8667   0.97404325 1.5819439e+08 
    4800    288.81473 -0.0038438775            0    3442.7426   0.99245923  1.58571e+08 
    4900    281.88796 -0.0011289806            0    3360.1765   0.96708713 1.5882872e+08 
    5000    281.67623 -0.0078546095            0    3357.6458   0.96659173 1.5878981e+08 
    5100    288.91477  -0.13822809            0    3443.8008    0.9934463 1.5845046e+08 
    5200    279.62662 -0.0043890123            0    3333.2174   0.96455792 1.5796724e+08 
    5300    284.92731 -7.4087554e-05            0    3396.4074   0.98779562 1.5717574e+08 
    5400    287.57437 -0.00033454227            0    3427.9608     1.003042 1.5622462e+08 
    5500    279.55836 -0.0013949272            0    3332.4068   0.98132671 1.5523044e+08 
    5600    282.46973 -0.0049456768            0    3367.1075   0.99907196 1.5406067e+08 
    5700    288.07707 -0.00015408439            0    3433.9532    1.0268412 1.5287058e+08 
    5800    276.67789 -0.00032546695            0    3298.0719   0.99278482 1.5185803e+08 
    5900    281.13722 -0.0050141203            0    3351.2236    1.0155975 1.508389e+08 
    6000    287.95586 -0.0022689957            0    3432.5063    1.0462643 1.4996924e+08 
    6100    281.77692 -0.003861267            0    3358.8502    1.0271788 1.4947771e+08 
    6200    281.29255 -6.7486268e-05            0    3353.0801     1.027001 1.492471e+08 
    6300     289.3213 -2.7635522e-05            0    3448.7849    1.0560652 1.4928226e+08 
    6400    283.43535 -0.075938222            0    3378.5469    1.0310548 1.4978286e+08 
    6500     277.8674 -0.00057884741            0    3312.2509    1.0054213 1.5059407e+08 
    6600    288.32839 -0.013649552            0    3436.9355    1.0367006 1.5154704e+08 
    6700    281.75823 -0.00012677699            0    3358.6311    1.0046923 1.5281362e+08 
    6800    278.06255 -9.6933756e-05            0    3314.5776   0.98284521 1.5416149e+08 
    6900    292.16531 -6.5655949e-05            0    3482.6863    1.0243151 1.554224e+08 
    7000    285.24838 -5.5804014e-05            0    3400.2346   0.99118613 1.5681461e+08 
    7100     275.0492 -6.9543829e-05            0    3278.6577   0.94825755 1.5805295e+08 
    7200    287.30309 -8.1354378e-05            0    3424.7273   0.98578697 1.5880923e+08 
    7300     286.0126 -0.0055952151            0    3409.3388   0.97812939 1.5933284e+08 
    7400      274.104 -0.0006538859            0    3267.3902   0.93596515 1.5957836e+08 
    7500    280.31267 -0.00033564336            0    3341.3994    0.9591114 1.5925464e+08 
    7600    290.44929 -0.035425119            0    3462.1955   0.99809107 1.5856433e+08 
    7700    281.35063 -0.00052507998            0     3353.772   0.97146932 1.5781096e+08 
    7800    279.62501 -0.00022186814            0    3333.2025    0.9714922 1.568394e+08 
    7900    291.08896 -0.00016233491            0    3469.8558    1.0188216 1.5568475e+08 
    8000    281.13167 -0.064283396            0    3351.0981   0.99028963 1.5468262e+08 
    8100    276.79118 -0.0013886797            0    3299.4213   0.98146798 1.5367178e+08 
    8200    290.38379 -0.094007242            0    3461.3561    1.0367358 1.5261185e+08 
    8300    286.01644 -0.00073875595            0    3409.3894    1.0260823 1.5188927e+08 
    8400    275.74965 -0.006481177            0    3287.0009   0.99229563 1.5142231e+08 
    8500    286.04319 -0.0019158958            0    3409.7071    1.0323414 1.5098232e+08 
    8600    290.37585 -0.019281059            0    3461.3361    1.0490453 1.5082648e+08 
    8700    281.36327 -0.00044438273            0    3353.9227    1.0149664 1.5105466e+08 
    8800    280.73091 -0.0010512534            0    3346.3842    1.0102127 1.514243e+08 
    8900    287.68543 -0.0032775333            0    3429.2816    1.0320575 1.5189074e+08 
    9000    280.87518 -0.0028752808            0    3348.1021    1.0030887 1.5257784e+08 
    9100    275.12664 -0.0032487217            0    3279.5776   0.97818251 1.5326042e+08 
    9200     292.0422 -0.00045967502            0    3481.2183    1.0346117 1.5381073e+08 
    9300    283.00595 -0.0015565534            0    3373.5028    0.9977157 1.5456342e+08 
    9400    278.23447 -0.001344333            0    3316.6257   0.97630135 1.5529056e+08 
    9500    285.48709  -0.13539232            0    3402.9448   0.99828138 1.5581243e+08 
    9600    284.16117 -0.00032436021            0    3387.2745   0.99081183 1.5627589e+08 
    9700    279.60817 -0.00024073386            0    3333.0017   0.97272922 1.5663051e+08 
    9800    288.15209 -0.00084909873            0    3434.8469     1.001537 1.5677363e+08 
    9900    280.24047 -3.269073e-05            0     3340.539   0.97351258 1.5685842e+08 
   10000    283.58854 -2.4781817e-05            0    3380.4489   0.98587381 1.5674218e+08 
Loop time of 38.5397 on 2 procs for 10000 steps with 4000 atoms

Performance: 22.418 ns/day, 1.071 hours/ns, 259.473 timesteps/s
99.9% CPU use with 2 MPI tasks x no OpenMP threads

MPI task timing breakdown:
Section |  min time  |  avg time  |  max time  |%varavg| %total
---------------------------------------------------------------
Pair    | 0.24568    | 0.24692    | 0.24816    |   0.2 |  0.64
Neigh   | 34.275     | 34.34      | 34.405     |   1.1 | 89.10
Comm    | 0.73454    | 0.79382    | 0.8531     |   6.7 |  2.06
Output  | 0.41624    | 0.41711    | 0.41797    |   0.1 |  1.08
Modify  | 2.4338     | 2.4364     | 2.4391     |   0.2 |  6.32
Other   |            | 0.3052     |            |       |  0.79

Nlocal:    2000 ave 2028 max 1972 min
Histogram: 1 0 0 0 0 0 0 0 0 1
Nghost:    188.5 ave 190 max 187 min
Histogram: 1 0 0 0 0 0 0 0 0 1
Neighs:    17 ave 18 max 16 min
Histogram: 1 0 0 0 0 0 0 0 0 1

Total # of neighbors = 34
Ave neighs/atom = 0.0085
Neighbor list builds = 10000
Dangerous builds not checked
Total wall time: 0:11:24
