LAMMPS (16 Feb 2016)
Lattice spacing in x,y,z = 3 3 3
Created orthogonal box = (0 0 0) to (30 30 30)
  1 by 2 by 3 MPI processor grid
Created 4000 atoms
Neighbor list info ...
  1 neighbor list requests
  update every 1 steps, delay 0 steps, check no
  max neighbors/atom: 2000, page size: 100000
  master list distance cutoff = 5.73
  ghost atom cutoff = 5.73
  binsize = 2.865, bins = 11 11 11
Setting up Verlet run ...
  Unit style  : real
  Current step: 0
  Time step   : 1
Memory usage per processor = 2.10082 Mbytes
Step Temp E_pair E_mol TotEng Press Volume 
       0       283.13   -0.7732371            0    3374.2098    5710.0785        27000 
     100    281.16677   -4.1627434            0    3347.4181    5571.4661    27397.269 
     200    287.08641   -74.738625            0    3347.4058     5333.331    28259.369 
     300     287.6929   -83.691884            0    3345.6821     5257.675     29056.28 
     400    278.83707   -87.186095            0    3236.6241    4968.8078    29893.281 
     500    273.30147   -95.075547            0    3162.7489    4694.2138    30663.402 
     600     280.9778    -97.22667            0    3252.1016    4694.7116    31390.595 
     700    282.59055   -94.455243            0    3274.0974    4681.2459    32123.305 
     800    283.21198    -83.81344            0    3292.1468    4625.4858    32861.476 
     900    283.95325   -85.934666            0    3298.8618    4494.2655    33606.729 
    1000    283.46543   -81.575162            0    3297.4063    4379.9931     34358.23 
    1100    285.05014   -82.087619            0     3315.784     4217.469    35117.812 
    1200    288.29364   -77.050093            0    3359.4849    4239.3619    35889.872 
    1300    286.75523   -81.371651            0    3336.8251    4147.6279    36676.239 
    1400     276.2493   -85.128257            0    3207.8351    3924.6962    37467.027 
    1500    274.24229   -77.411679            0    3191.6276    3768.0971    38251.118 
    1600     280.3867   -82.747362            0    3259.5348    3797.9961    39047.502 
    1700    282.42741   -80.515649            0    3286.0923    3826.0456    39865.672 
    1800    283.14133   -73.058179            0      3302.06    3700.0784    40701.474 
    1900     283.7246    -77.37182            0     3304.699    3621.5406    41551.085 
    2000    284.11097   -74.567158            0    3312.1093    3596.2861    42412.626 
    2100    287.48993   -72.318004            0    3354.6365    3564.9856    43291.134 
    2200    287.86389   -78.310178            0    3353.1021    3456.3784    44190.095 
    2300    276.21042   -82.779066            0    3209.7208    3228.5846    45097.002 
    2400    272.51561   -70.328477            0    3178.1283    3137.9958    45995.481 
    2500    279.53986    -84.06269            0    3248.1249    3195.6124    46905.645 
    2600    282.44631   -80.157496            0    3286.6758    3152.4518    47844.181 
    2700    283.51952   -70.968136            0    3308.6581    3121.0979     48806.74 
    2800     283.9623   -78.173874            0    3306.7304    3010.4057    49786.828 
    2900    282.02611   -68.454222            0    3293.3702    2943.0945     50783.99 
    3000    285.85718   -71.345463            0    3336.1463    2960.3487    51795.198 
    3100     286.6573   -73.034053            0    3343.9954    2901.2253    52831.451 
    3200    279.38042   -60.960777            0    3269.3264    2779.3477    53883.459 
    3300    275.10137   -63.467129            0    3215.8126    2694.3043     54935.26 
    3400    282.72612    -66.75615            0    3303.4125    2722.1138    56000.448 
    3500    284.25672      -68.107            0    3320.3068    2695.2655     57101.69 
    3600    283.02736   -66.734967            0    3307.0246    2635.8172     58225.01 
    3700    283.13985   -63.819796            0    3311.2807    2545.3736    59362.635 
    3800     286.0285   -66.413164            0    3343.1207    2530.8357     60521.03 
    3900    285.49847   -68.203917            0    3335.0119    2465.9532    61704.873 
    4000    281.71724   -59.479989            0    3298.6626    2403.5301    62904.972 
    4100    282.63437   -61.509293            0    3307.5657    2358.8161    64119.357 
    4200    284.98454   -60.947858            0    3336.1418    2308.2911    65358.003 
    4300    283.50047   -58.640251            0    3320.7588    2273.6335    66623.889 
    4400    281.36586   -54.931256            0    3299.0227    2224.6959    67906.326 
    4500    286.78621   -65.872103            0    3352.6939    2207.2097    69208.542 
    4600    285.31632   -59.914124            0    3341.1304    2159.9221    70544.394 
    4700    279.20095   -58.171318            0    3269.9764    2068.5787    71897.739 
    4800    279.12587   -60.188644            0    3267.0642    2043.9097    73252.646 
    4900    285.24533   -60.755455            0    3339.4428    2053.8345    74638.575 
    5000    284.07201   -64.088888            0    3322.1232    2014.8487    76066.353 
    5100    280.95188   -49.867455            0    3299.1518    1948.8519    77513.565 
    5200    285.02409   -54.286692            0    3343.2744    1929.6676    78978.274 
    5300    285.04219   -50.834477            0    3346.9423    1902.1562     80481.43 
    5400    281.09084   -50.184534            0    3300.4911    1835.7294     82007.28 
    5500    284.15721   -53.190024            0    3334.0376    1835.1929    83545.424 
    5600    287.66405   -48.247001            0    3380.7831    1801.3285    85127.288 
    5700    281.53552   -48.584771            0    3307.3917    1735.1039    86742.774 
    5800     277.9977   -50.495362            0    3263.3093    1684.3361    88360.583 
    5900    284.29887   -51.019198            0    3337.8971    1700.7094    89997.892 
    6000    282.71559   -39.934501            0    3330.1087    1659.3558    91686.675 
    6100    281.55396   -49.357446            0    3306.8388    1620.7205    93403.413 
    6200    282.90523   -38.012479            0    3334.2912    1598.7805    95141.121 
    6300     286.4157   -41.502699            0    3372.6467    1579.9814    96922.092 
    6400     282.2932   -39.183632            0    3325.8246    1545.3911    98741.251 
    6500    279.58387   -38.273687            0    3294.4386    1504.7891    100574.46 
    6600    280.82712   -40.972848            0    3306.5593    1481.2116    102426.15 
    6700     281.5191   -40.491948            0    3315.2888    1461.6566    104315.84 
    6800    281.93622   -49.959801            0    3310.7931    1435.1516    106242.08 
    6900    282.17974   -48.321592            0    3315.3342    1392.5696    108201.08 
    7000    282.35279   -38.484474            0     3327.234    1375.8894    110196.74 
    7100    281.86612   -38.151587            0    3321.7657    1352.1113    112229.26 
    7200    280.66158   -40.362427            0    3305.1964    1325.8355    114293.61 
    7300    281.41761   -42.253865            0     3312.317     1296.737    116387.75 
    7400    283.06596   -40.134675            0    3334.0849     1289.026    118521.44 
    7500     283.2236   -45.256302            0    3330.8425    1256.6639    120699.45 
    7600    281.38137   -41.744376            0    3312.3946    1229.1952    122913.76 
    7700    279.97776   -35.013992            0    3302.3935    1212.8049    125154.84 
    7800    280.59327    -36.92669            0    3307.8178    1188.3209    127431.08 
    7900    283.28996   -40.953356            0    3335.9365    1168.9071    129751.55 
    8000    283.30048   -35.867045            0    3341.1482    1148.8958    132122.42 
    8100    282.68371   -40.571439            0    3329.0917    1126.8725    134537.37 
    8200    285.81761   -45.837738            0    3361.1823    1132.0616     136986.8 
    8300    290.55114   -43.051723            0    3420.3933    1122.7269    139506.15 
    8400    282.46896    -38.09471            0    3329.0086      1072.16    142080.56 
    8500    278.00383   -32.115458            0    3281.7624     1033.293    144647.76 
    8600    280.97453   -34.374707            0    3314.9145    1027.2274    147240.02 
    8700    281.32685   -35.719567            0    3317.7694    1011.2234    149896.08 
    8800    281.91908   -39.806558            0     3320.742    998.04117    152602.17 
    8900    282.95747   -28.838529            0    3344.0879    983.30776    155358.86 
    9000    283.48121     -30.1412            0    3349.0284    970.27571    158175.18 
    9100    282.86329    -38.83192            0    3332.9719    945.91014    161036.38 
    9200    286.75226   -28.982344            0    3389.1789    944.11162    163942.56 
    9300    289.86435   -32.985669            0    3422.2725    937.62464     166938.9 
    9400      280.496   -32.512546            0    3311.0725    887.44548    169985.34 
    9500    277.29042   -30.449695            0     3274.924    860.92238       173014 
    9600    281.79522   -24.087278            0    3334.9849    862.06725    176083.67 
    9700    282.09033   -26.336298            0    3336.2536    851.48164    179242.83 
    9800    282.38318    -27.08775            0    3338.9931    835.65994    182462.28 
    9900     284.3404   -29.628758            0    3359.7826    827.79953    185738.26 
   10000    285.08838   -23.930314            0    3374.3972    813.66951    189085.04 
   10100    288.88806   -25.994941            0    3417.6257    810.19434    192496.96 
   10200    289.86487   -29.188675            0    3426.0758    795.94443    195998.84 
   10300    278.48775   -28.989809            0    3290.6564    753.72254    199537.91 
   10400     275.5047   -23.090606            0    3260.9968    739.80699    203042.55 
   10500    278.78883   -22.863868            0    3300.3714    732.91227     206600.5 
   10600    282.13004   -29.193751            0    3333.8695    728.28832    210260.75 
   10700    283.29817   -21.818925            0    3355.1688    715.19939    214015.91 
   10800    283.86302   -24.792489            0    3358.9284    703.65468    217844.03 
   10900    284.60731   -29.653759            0    3362.9392    694.68693    221734.37 
   11000    288.66927   -23.367476            0    3417.6451      694.463    225700.25 
   11100    287.96334   -28.985846            0    3403.6119    675.06306    229773.13 
   11200     276.2942   -20.689475            0    3272.8091    636.92858    233877.23 
   11300    275.82459   -22.702011            0    3265.1986    623.87745    237944.78 
   11400      279.085    -18.02611            0    3308.7395    627.27682    242091.55 
   11500    282.23801    -23.56278            0    3340.7875    620.59281    246356.17 
   11600    284.70323   -21.498505            0    3372.2378    618.67768    250729.55 
   11700    284.07879   -22.910139            0    3363.3828    603.65307    255195.64 
   11800     282.2451   -21.971354            0    3342.4634    589.35013    259718.64 
   11900    285.41685    -25.35164            0    3376.8912    582.57041    264305.37 
   12000    286.85615    -19.82127            0    3399.5784       578.22    269005.27 
   12100    281.79222   -19.435813            0    3339.6006    559.00587    273790.34 
   12200    273.91388   -21.100502            0    3244.0241    531.15345     278580.1 
   12300    278.43329   -19.308686            0    3299.6884    533.53978    283372.55 
   12400    282.97361   -20.561096            0    3352.5578    532.56298    288320.45 
   12500    283.97114   -21.086423            0    3363.9232     527.7987    293411.59 
   12600    283.65491   -20.348397            0    3360.8918    516.29785    298594.61 
   12700    284.11818   -19.144351            0     3367.618    506.94774    303854.71 
   12800    286.61671   -17.876546            0     3398.669    502.24983    309212.29 
   12900     286.9159   -19.103071            0    3401.0088    493.03966    314694.07 
   13000    280.49938    -15.55268            0    3328.0727    474.45309    320252.56 
   13100    275.50963   -16.725072            0    3267.4212    458.08498    325804.02 
   13200    282.24411   -21.013492            0    3343.4095    461.40424    331416.63 
   13300    283.27289   -18.186861            0    3358.4995    457.70492    337210.02 
   13400    283.16426   -21.150776            0    3354.2406    446.64541    343127.64 
   13500    283.76796   -14.524284            0    3368.0634    439.51982    349133.88 
   13600     287.4022   -19.645416            0    3406.2633    437.24229    355258.59 
   13700    286.68373   -21.003469            0     3396.341    429.24491    361529.88 
   13800     277.7767   -14.563436            0    3296.6069    408.37767     367866.7 
   13900      275.971   -16.827426            0    3272.8185    399.46006    374172.97 
   14000    282.27139    -16.97694            0    3347.7712    401.89081    380592.58 
   14100      283.039   -13.536165            0    3360.3621    395.48164    387222.13 
   14200    283.50622   -13.331201            0    3366.1365    390.44898    393988.96 
   14300    284.42664   -12.757441            0    3377.6819    384.04753    400869.41 
   14400    286.90138   -13.249129            0    3406.6898    382.88594    407883.01 
   14500    288.84418   -14.553841            0    3428.5437    377.05316    415059.05 
   14600    282.35533   -13.906404            0    3351.8424    363.03283    422357.95 
   14700    274.34673   -13.280742            0    3257.0035    348.53195    429626.42 
   14800    280.18015   -14.096659            0    3325.7233    346.99239    436919.02 
   14900    281.94927   -12.555741            0    3348.3527    343.80635    444445.64 
   15000    283.10957   -12.837659            0    3361.9019    339.51755    452156.52 
   15100    284.47966   -13.610336            0     3377.461    334.57748    460011.95 
   15200    284.53222   -12.945124            0    3378.7527    329.79046    468012.39 
   15300    286.82904   -14.961427            0    3404.1151    327.26311    476146.59 
   15400    288.64455   -12.141782            0    3428.5762    323.73211    484471.09 
   15500    281.10164   -8.5837212            0    3342.2208    309.20511    492937.21 
   15600    274.06623   -12.643904            0    3254.2967    297.65978    501359.07 
   15700    281.59109   -12.084176            0    3344.5547    300.13014    509826.32 
   15800    282.63779   -13.206421            0    3355.9094    296.83802    518591.15 
   15900    283.19206   -10.572939            0    3365.1499    291.96045    527550.55 
   16000    284.47916   -10.104025            0    3380.9614    286.97024    536672.41 
   16100    284.56439   -11.461116            0    3380.6202    282.23439    545964.33 
   16200    284.81114   -8.1491729            0    3386.8735    278.17323    555408.17 
   16300    287.20204   -6.6138755            0     3416.909    275.72851    565026.98 
   16400    284.84549   -10.463885            0    3384.9683     269.4325    574840.35 
   16500     276.9172   -7.1308218            0     3293.794     256.9356    584722.29 
   16600    278.16221    -7.957916            0    3307.8078     253.7187    594594.16 
   16700    283.61267   -8.2523131            0    3372.4843    255.02802    604712.92 
   16800    282.95221   -8.6470666            0    3364.2166    250.41297    615127.74 
   16900    282.79392   -8.7838595            0    3362.1931    245.73732     625696.3 
   17000    285.45086   -10.589816            0    3392.0585    244.14221    636440.87 
   17100      286.819   -8.4854857            0    3410.4714    241.46934    647429.78 
   17200    284.03196   -9.3252814            0    3376.4093     234.5436    658622.02 
   17300    277.83733   -6.4342018            0    3305.4589    225.27172     669878.3 
   17400    280.60166   -9.8804688            0    3334.9641    223.79467    681175.98 
   17500    284.28563   -7.8782877            0    3380.8801    223.62019    692776.71 
   17600    283.12338   -7.0674234            0    3367.8367    218.46287    704672.27 
   17700    282.71515   -8.2600973            0    3361.7779    214.38168    716726.91 
   17800    287.23105   -5.4644464            0    3418.4042    214.26963    728993.26 
   17900    287.24507   -10.161867            0    3413.8738    211.25658    741588.11 
   18000    277.82805   -8.0062988            0    3303.7762    199.83335    754313.06 
   18100    269.87802   -6.3148545            0    3210.7012     191.5977    766908.94 
   18200    279.82988   -6.6104747            0    3329.0343    195.11502     779603.9 
   18300    283.48944   -7.1695599            0    3372.0981    194.24018     792816.4 
   18400    284.86394   -5.8821447            0      3389.77    191.73256    806404.92 
   18500    283.68332   -8.4629953            0    3373.1158    188.61095    820226.22 
   18600     281.9859   -5.7741594            0    3355.5709    183.63238     834188.9 
   18700    285.01397   -10.547942            0    3386.8925    182.29868    848343.24 
   18800    286.07123   -5.2703805            0    3404.7729    180.25195    862843.66 
   18900      282.323   -5.0790028            0    3360.2844    174.68205    877601.21 
   19000    276.26878   -7.5986623            0    3285.5968    168.29662    892411.15 
   19100    280.56683   -8.0714086            0     3336.358    168.52637    907290.87 
   19200    283.92668   -5.3395737            0    3379.1401    167.25377    922608.42 
   19300    283.39079   -5.2722283            0    3372.8195     164.0687    938318.27 
   19400    283.11528    -6.161186            0    3368.6464    161.17883    954262.07 
   19500    286.06388    -4.666645            0     3405.289    160.30152    970463.23 
   19600    287.53562   -5.1638255            0    3422.3353    158.20988    987050.46 
   19700    280.53988   -7.6383905            0    3336.4698    151.96223    1003904.3 
   19800     272.4683   -5.1859398            0    3242.7069    145.03066    1020640.4 
   19900    279.47146   -7.2397637            0    3324.1325    146.38576    1037455.7 
   20000    281.85557   -5.0176624            0    3354.7739    145.45555    1054849.4 
   20100    284.14469   -7.1719633            0    3379.9064    143.99964    1072695.5 
   20200    284.19666   -5.7931475            0    3381.9048    141.50973    1090899.9 
   20300    283.44748   -3.5212237            0    3375.2463    138.95647    1109374.1 
   20400      286.475   -4.0980033            0    3410.7583    138.12354    1128143.5 
   20500    287.69966   -5.9522825            0    3423.5023    136.54053      1147362 
   20600    279.84994   -4.5428652            0     3331.341    130.93167    1166850.9 
   20700    272.67507   -3.4962954            0    3246.8612    125.11892      1186210 
   20800    280.35965   -3.3664536            0    3338.5933    126.44322    1205709.4 
   20900    282.28653   -5.1707805            0    3359.7579    125.23033    1225883.7 
   21000    283.86682   -4.3677598            0    3379.3984    124.32813    1246554.5 
   21100    284.40475   -5.0977987            0    3385.0806    121.90584      1267614 
   21200    284.00024   -6.0288545            0    3379.3277    119.69461    1289001.9 
   21300    285.34222   -3.5414455            0    3397.8118    118.40612    1310715.1 
   21400    287.46729   -2.3755024            0    3424.3092    117.32905    1332883.4 
   21500    283.05157   -2.6056272            0    3371.4426    113.72861    1355471.4 
   21600    274.59256    -2.647169            0    3270.5674    108.37393      1378078 
   21700    279.50205   -4.7736167            0    3326.9633    109.09679    1400663.6 
   21800     282.7509   -2.4664182            0    3367.9977    108.11151    1423953.8 
   21900    283.23736   -3.3922833            0    3372.8705     106.3437    1447870.7 
   22000    283.90088   -3.8018383            0    3380.3703    105.03408    1472199.4 
   22100    284.78514   -1.9983376            0    3392.7145    103.53298    1496933.4 
   22200    286.87747   -3.1694882            0    3416.4843     102.5028    1522129.3 
   22300    287.51533   -3.7269592            0    3423.5303     101.1123    1547855.1 
   22400    281.26772    -2.063595            0    3350.7205    97.233052    1573945.4 
   22500    275.63975   -3.8976187            0    3281.7997    93.837216    1599968.3 
   22600    281.97183   -2.4678167            0    3358.7096    94.568353    1626194.2 
   22700    283.17088   -2.9644618            0    3372.5059     93.19032      1653297 
   22800    282.68693   -3.8911999            0    3365.8104     91.64671    1680947.9 
   22900    284.04707   -3.2846168            0    3382.6302    90.395134    1708999.9 
   23000    286.84902   -3.0351786            0    3416.2796    89.882095    1737620.8 
   23100    286.71942   -1.8022932            0    3415.9676    88.319528    1766882.9 
   23200    281.85235   -2.1013679            0    3357.6517    85.382555    1796527.8 
   23300    277.23254   -1.9857481            0    3302.6981    82.644343    1826205.5 
   23400    282.42919   -2.3715614            0    3364.2576    82.812061    1856156.5 
   23500    284.06178    -1.446363            0    3384.6437    82.064887      1887019 
   23600     282.4612   -1.3087867            0     3365.702    80.157271      1918511 
   23700    283.70218    -5.495112            0    3376.3084    79.319851    1950371.6 
   23800    288.52725    -2.753026            0    3436.5666    79.152545    1982908.2 
   23900    284.96758   -3.2077671            0    3393.6797    76.906507    2016260.7 
   24000    274.51015    -1.350514            0    3270.8817    72.950187    2049686.9 
   24100    271.36515   -1.1397725            0    3233.6032    70.946559    2082714.9 
   24200    280.65355   -1.2911733            0    3344.1719     72.29893    2116388.1 
   24300    284.15309    -1.933296            0    3385.2452    71.879401    2151418.4 
   24400    285.04439   -3.6141853            0    3394.1888    71.074102    2187348.2 
   24500     282.8853    -2.559857            0    3369.5063    69.193558    2223790.5 
   24600    281.93935   -3.4447989            0    3357.3454     68.10435      2260537 
   24700     285.3315   -1.5992517            0    3399.6263    67.599183    2297853.6 
   24800     286.1355   -5.1099804            0    3405.6994    66.642573    2336094.5 
   24900    280.63083   -3.0077749            0    3342.1845    64.282758      2374893 
   25000    273.66971   -1.9504652            0    3260.2635    61.821752    2413643.3 
   25100    280.22514   -1.5503755            0     3338.806    62.253037    2452575.3 
   25200    283.49154   -2.1960969            0    3377.0966    61.902662    2492839.7 
   25300    283.79658   -1.1706691            0    3381.7582    61.063463    2534151.3 
   25400    283.66543   -1.7363226            0    3379.6292     59.92892    2576120.2 
   25500    284.68744   -1.2760967            0     3392.272      59.2781    2618679.8 
   25600    287.30589   -1.6045411            0    3423.1562    58.745961    2662062.8 
   25700    285.98548   -1.5852936            0    3407.4359    57.595433    2706368.8 
   25800    277.93809   -3.0503326            0    3310.0438    54.992554    2751025.1 
   25900    275.95208   -2.1326149            0    3287.2877    53.761529    2795457.7 
   26000    282.46815    -1.139631            0     3365.954    54.144546    2840692.3 
   26100    283.05868   -2.5333227            0    3371.5995    53.372902      2887374 
   26200    283.20667   -1.2507261            0    3374.6462    52.539429    2934912.4 
   26300    284.76921   -1.1499132            0     3393.373    52.016278      2983207 
   26400    287.10676   -4.0312752            0    3418.3558    51.617892      3032466 
   26500    287.17982   -2.8262175            0    3420.4318    50.715106      3082748 
   26600    281.77512   -1.2954178            0     3357.537    48.955945    3133664.6 
   26700     276.8388   -1.8447198            0    3298.1456    47.347502    3184556.6 
   26800    282.43465  -0.92870102            0    3365.7656    47.534897    3235869.5 
   26900    283.91173   -1.8549531            0    3382.4465     47.02618    3288786.3 
   27000    282.32596   -1.8698502            0    3363.5288    45.972261    3342763.9 
   27100    283.58161   -2.5503101            0    3377.8161    45.479252    3397371.9 
   27200    288.08507   -2.3408354            0     3431.708    45.465976    3453131.8 
   27300    284.70423   -1.3260474            0    3392.4223    44.352192    3510230.2 
   27400    272.32225   -1.7427121            0    3244.4092    41.612189      3567376 
   27500      273.913   -2.2869386            0     3262.827    41.183017    3623750.4 
   27600    278.92045   -1.1032006            0    3323.7009    41.253298    3681468.8 
   27700    283.54729   -2.4382133            0    3377.5191    41.289562    3741155.4 
   27800     284.9774   -1.3328237            0    3395.6717    40.802483    3802498.3 
   27900    283.29568   -1.7100234            0     3375.248    39.913464      3864871 
   28000    282.09238   -1.9231486            0    3360.6912     39.08778    3927801.6 
   28100     285.8174   -2.0425085            0    3404.9751    38.968301    3991611.7 
   28200    286.54671   -4.0590232            0    3411.6521    38.445318    4057018.6 
   28300    280.07658   -1.2906476            0    3337.2948    36.980238      4123331 
   28400    272.52139   -1.0338709            0    3247.4918    35.470401    4189325.8 
   28500    280.14035   -2.7565211            0    3336.5891    35.806766      4255549 
   28600    283.00264  -0.94899171            0    3372.5159    35.691601    4324160.6 
   28700    284.08539  -0.87893033            0    3385.4926    35.207043    4394571.6 
   28800    283.97948    -1.037005            0     3384.072    34.638203    4466174.1 
   28900    283.96555  -0.97930773            0    3383.9638    34.079665    4538745.5 
   29000     286.3269  -0.91053466            0    3412.1803    33.808288    4612475.1 
   29100    287.11447   -2.2208834            0     3420.258    33.403968    4687788.7 
   29200    280.78474   -1.7426946            0    3345.2842    32.082121    4764125.8 
   29300    274.52221   -1.2061891            0    3271.1698    30.910962    4840145.1 
   29400    281.55464   -1.2079392            0    3354.9964    31.181064    4916657.9 
   29500     283.0892   -1.6226201            0    3372.8741    30.850217    4995754.8 
   29600    283.12878   -1.0675607            0    3373.9009    30.395633      5076571 
   29700    284.22843   -1.5025539            0     3386.574     29.99088    5158626.7 
   29800    286.07866   -1.9667746            0    3408.1651    29.775388    5242153.9 
   29900    287.48473   -1.7041162            0    3425.1884      29.4417    5327336.6 
   30000    285.02449   -1.3384394            0    3396.2275    28.662243    5413989.5 
   30100     277.8031  -0.95383312            0    3310.5311    27.539378      5501037 
   30200    278.88306  -0.90952797            0    3323.4489    27.178743    5587950.2 
   30300    284.01086   -1.2618139            0    3384.2213    27.249936    5676922.7 
   30400    282.97194   -2.0140997            0    3371.0848    26.704973    5768355.5 
   30500    282.46303   -3.0202097            0    3364.0124    26.345054    5860969.8 
   30600    286.18122  -0.99721895            0    3410.3571    26.203231    5954982.4 
   30700    287.51804   -1.2255009            0    3426.0641    25.871619    6051389.5 
   30800    278.76702   -1.6400258            0    3321.3351     24.77805      6149115 
   30900     270.9831   -1.6466222            0    3228.5423    23.706435    6245572.9 
   31000    277.40738   -0.9596758            0    3305.8082    23.818737    6342348.6 
   31100    281.61181   -1.6786028            0    3355.2073    23.794403    6442427.2 
   31200    284.71352   -1.0094963            0    3392.8495    23.718085    6545556.4 
   31300    284.30947  -0.79048716            0    3388.2522    23.281991    6650922.7 
   31400    282.38782  -0.98825403            0    3365.1478    22.759503      6757464 
   31500    284.00406   -1.4457742            0    3383.9562    22.550507    6865014.5 
   31600    287.37974   -2.3137205            0    3423.3273    22.420899    6974849.9 
   31700    283.39032   -1.0303479            0    3377.0558    21.776343    7086994.7 
   31800    274.42116   -1.4960942            0    3269.6754    20.783199    7199178.4 
   31900    276.69272   -2.1504021            0    3296.0986     20.60766    7310555.8 
   32000    282.42073  -0.93606073            0    3365.5922    20.714594    7424987.6 
   32100    283.80013   -1.6805309            0    3381.2907    20.512622    7543085.2 
   32200    284.00981  -0.99541075            0    3384.4752    20.183125    7663412.1 
   32300    283.95799   -1.9205722            0    3382.9323    19.886315    7785390.1 
   32400    285.29305   -1.7343398            0    3399.0328    19.647419    7909087.2 
   32500    287.23677   -1.5611739            0    3422.3756    19.467856      8035165 
   32600    284.41183    -1.782238            0    3388.4805    18.965707    8163525.5 
   32700    276.79984      -1.3903            0    3298.1356    18.173455    8292276.9 
   32800    278.68672   -1.3250026            0     3320.693    18.048626    8420614.5 
   32900     283.6735    -1.172239            0    3380.2895    18.061135    8552227.1 
   33000    282.96403  -0.72788668            0    3372.2768    17.739963    8687536.3 
   33100    282.92298   -0.9910754            0    3371.5242     17.46573      8824650 
   33200    285.98302   -0.9447034            0    3408.0471    17.393849    8963855.3 
   33300    287.51178  -0.78927732            0    3426.4257    17.196385    9106261.8 
   33400    281.57281   -1.0653801            0    3355.3555    16.573325    9250837.2 
   33500    273.88804   -1.0518617            0    3263.7646    15.882559    9394496.7 
   33600    280.16529   -1.0192649            0    3338.6237    16.011558    9538278.8 
   33700    282.73897  -0.88690635            0     3369.435    15.895986    9686756.9 
   33800    283.62523   -1.7885072            0    3379.0978     15.68974    9838908.6 
   33900    284.12636    -1.135963            0    3385.7239    15.483975    9993594.5 
   34000     285.2111  -0.81586485            0    3398.9744    15.329494     10150627 
   34100     287.7133  -0.93999821            0    3428.6772     15.19902     10310494 
   34200    286.04051  -0.69565019            0    3408.9814    14.875183     10473489 
   34300    277.37723  -0.75544827            0    3305.6531    14.202278     10637249 
   34400     276.7502   -1.0475157            0    3297.8866    13.963022     10799672 
   34500    282.96904   -0.9698188            0    3372.0945    14.070351     10965308 
   34600    282.83485  -0.83710362            0    3370.6277    13.833486     11136035 
   34700    283.17917  -0.67748728            0    3374.8916    13.637858     11309470 
   34800    285.15238  -0.73821135            0    3398.3521    13.522182     11485578 
   34900    286.81339   -0.9998807            0    3417.8901    13.393559     11665128 
   35000    286.21812  -0.91749925            0    3410.8768    13.179223     11847872 
   35100    281.08182  -0.99347236            0    3349.5747    12.726395     12032316 
   35200    278.08601  -0.77003158            0    3314.0874    12.397691     12216553 
   35300    283.90586  -0.97246056            0    3383.2591    12.464322     12402935 
   35400    284.25367   -0.7504297            0     3387.627    12.292139     12594939 
   35500     281.8282   -0.9629696            0    3358.5023    12.002845     12789885 
   35600    283.68244   -1.8769214            0    3379.6914    11.911181     12986350 
   35700    288.80107   -1.6961798            0    3440.8875    11.930608     13187377 
   35800    283.44082  -0.93582361            0    3377.7523    11.526919     13392953 
   35900    278.79832  -0.75023582            0    3322.5981    11.166539     13598116 
   36000    280.70283  -0.68665368            0    3345.3639    11.075424     13803877 
   36100    280.89744  -0.71862899            0    3347.6517    10.917084     14013725 
   36200    282.14156  -0.84459092            0     3362.356    10.800941     14227202 
   36300    284.65725   -1.2384445            0    3391.9498    10.733412     14444843 
   36400    284.46481  -0.88398153            0    3390.0103    10.577439     14666837 
   36500    283.14866  -0.84057381            0     3374.365    10.371665     14891510 
   36600    285.62237   -1.6084135            0    3403.0844    10.288897     15118740 
   36700    286.41244  -0.89182996            0    3413.2187    10.162653     15350669 
   36800    281.48899  -0.76263431            0    3354.6591    9.8369029     15585648 
   36900    276.70303  -0.90711647            0    3297.4648    9.5245113     15820079 
   37000    283.35741   -1.4789304            0    3376.2149     9.607844     16055907 
   37100    284.54156  -0.65088271            0    3391.1583    9.5082378     16299381 
   37200    282.09633   -0.6736057            0    3361.9879    9.2851985     16547253 
   37300    282.47171  -0.68168803            0    3366.4543    9.1595991     16796756 
   37400     287.6543  -0.73221399            0    3428.1817    9.1886496     17050728 
   37500    284.88983  -0.79104707            0    3395.1696    8.9633763     17310996 
   37600     277.7064  -0.86330458            0     3309.469    8.6076348     17571910 
   37700    274.86769  -0.92545196            0    3275.5687    8.3968482     17830511 
   37800    283.20735  -0.97409411            0    3374.9309    8.5272095     18092814 
   37900    284.84803   -1.1248663            0    3394.3376    8.4494178     18364788 
   38000    283.24525   -1.4491341            0    3374.9077    8.2757661     18641904 
   38100    281.95611   -1.0387113            0    3359.9513    8.1198008     18920904 
   38200    285.20538   -1.2973278            0    3398.4248    8.0910446     19202909 
   38300    286.65789    -1.174378            0    3415.8621     8.011857     19491390 
   38400    281.26874  -0.99205801            0    3351.8043    7.7453531     19784017 
   38500    272.73616  -0.98827902            0    3250.0974    7.4017119     20074429 
   38600    279.31972  -0.98953088            0    3328.5739    7.4725392     20363388 
   38700    282.73674  -0.99246135            0    3369.3028    7.4535058     20662032 
   38800    284.01377   -1.0509986            0    3384.4668    7.3762384     20968906 
   38900    284.13685  -0.79895275            0     3386.186    7.2720867     21280839 
   39000    283.97316  -0.71180825            0    3384.3219    7.1617843     21596349 
   39100    285.85037   -1.2779776            0    3406.1326    7.1011461     21915771 
   39200    286.91797  -0.66628403            0    3419.4704    7.0261397     22241047 
   39300    282.08642   -0.6177318            0    3361.9256    6.8071613     22570567 
   39400    275.67421  -0.59787322            0    3285.5102    6.5572777     22898396 
   39500    281.65634   -0.6528657            0    3356.7638    6.6049226     23225959 
   39600    284.03404   -1.4211034            0    3384.3384    6.5614044     23563926 
   39700    282.61334  -0.94115355            0    3367.8832    6.4379434     23909258 
   39800    283.07477    -1.196829            0    3373.1279    6.3588833     24257524 
   39900    287.16291     -0.81057            0    3422.2458    6.3660471     24611186 
   40000    286.49477   -1.0028023            0    3414.0892    6.2494451     24973045 
   40100    276.06909    -1.672764            0    3289.1424    5.9307611     25336525 
   40200    273.90909  -0.64961739            0    3264.4178     5.806457     25692881 
   40300    280.22109  -0.66846562            0    3339.6396    5.8578146     26053584 
   40400    282.85717  -0.61241725            0    3371.1184    5.8299042     26426365 
   40500    284.70248   -0.7848267            0    3392.9425    5.7842882     26808075 
   40600    284.12276  -0.96869185            0    3385.8483    5.6951131     27195970 
   40700    282.96388   -1.0300369            0    3371.9728    5.5901621     27587022 
   40800    285.33881  -0.73495617            0    3400.5777     5.554064     27981610 
   40900    286.74285  -0.57319369            0    3417.4759    5.5024947     28383967 
   41000    281.85445  -0.75269517            0    3359.0255    5.3313443     28791670 
   41100    275.18856  -0.86519258            0    3279.4538    5.1336677     29196547 
   41200    281.45062  -0.73140438            0     3354.233    5.1885194     29599973 
   41300    284.12664  -0.85732947            0    3386.0059    5.1555965     30016509 
   41400    282.89641  -0.55319145            0    3371.6454     5.061676     30442448 
   41500    282.88585  -0.82458937            0    3371.2481    4.9900028     30871844 
   41600    286.47661  -0.96301584            0    3413.9125    4.9846071     31306681 
   41700    287.06826   -1.0330689            0     3420.895    4.9262561     31751096 
   41800    278.73323  -0.61474375            0    3321.9577    4.7148709     32199286 
   41900    273.49007  -0.78792477            0    3259.2846    4.5629849     32639281 
   42000    280.74807  -0.89883537            0     3345.691    4.6223038     33080276 
   42100    282.68967   -0.9721897            0     3368.762    4.5948487     33536213 
   42200    284.11602  -0.57189968            0    3386.1648    4.5512338     34002494 
   42300    284.46897  -0.55636209            0    3390.3875    4.4943235     34475995 
   42400    284.24806   -1.1073476            0    3387.2033    4.4318732     34954495 
   42500    285.53535  -0.75648421            0     3402.899    4.3884931     35437750 
   42600    285.85381  -0.49988521            0    3406.9517    4.3338025     35928122 
   42700    282.03218  -0.92653483            0    3360.9702    4.2177974     36423059 
   42800    278.37967    -0.890002            0    3317.4679    4.1073783     36916138 
   42900    283.90952  -0.48951749            0    3383.7856    4.1337335     37410947 
   43000    285.39486 -0.013761268            0     3401.967    4.1223713     37920344 
   43100    281.90129  -0.86047938            0     3359.476     3.994572     38437765 
   43200    280.71323   -1.4646914            0    3344.7099     3.926475     38954203 
   43300     287.8253   -0.9814012            0    3429.9709    3.9718989     39476767 
   43400     285.3796  -0.63853489            0    3401.1603    3.8845209     40014713 
   43500    279.05252   -0.5300964            0    3325.8483    3.7481056     40553051 
   43600    280.79381  -0.72745672            0    3346.4076    3.7293687     41085612 
   43700    287.25802  -0.48158438            0    3423.7085    3.7586028     41630417 
   43800    282.75925  -0.82498595            0    3369.7386    3.6503981     42189711 
   43900    278.91197  -0.70284275            0    3324.0002    3.5538034     42746223 
   44000    284.12013  -0.50724051            0    3386.2784    3.5739584     43302204 
   44100     286.0276  -0.99507673            0    3408.5281    3.5528884     43873917 
   44200    281.91536  -0.45904868            0    3360.0451     3.454401     44454239 
   44300    280.45425  -0.88920468            0    3342.1982    3.3963721     45031934 
   44400    287.80071  -0.46125821            0    3430.1978    3.4368509     45614331 
   44500    286.91297  -0.98741238            0    3419.0896    3.3822032     46215921 
   44600    281.23168  -0.48480431            0    3351.8697     3.271805     46820691 
   44700    280.00645  -0.85956456            0    3336.8899    3.2162763     47418519 
   44800    285.23955  -0.50695009            0    3399.6224    3.2354907     48020611 
   44900    285.19624  -0.84459499            0    3398.7685    3.1936785     48639370 
   45000    281.78449  -0.48559296            0    3358.4587    3.1156625     49263785 
   45100    281.18408  -0.91018512            0     3350.877    3.0701809     49886066 
   45200    285.17108  -0.46201094            0    3398.8512    3.0751411     50513500 
   45300    286.91286   -1.0175239            0    3419.0582    3.0573818     51156366 
   45400    279.19928  -0.76810187            0    3327.3598    2.9348207     51806862 
   45500    271.53559  -0.80538574            0    3235.9693    2.8252892     52439784 
   45600    279.09953  -0.43671672            0    3326.5021     2.864973     53065089 
   45700    283.22357  -0.93652808            0    3375.1619    2.8722147     53713291 
   45800    284.90935  -0.54704202            0    3395.6463    2.8536378     54381690 
   45900    283.74227  -0.50262432            0    3381.7789    2.8070158     55060019 
   46000    281.86509  -0.99647234            0    3358.9085    2.7551949     55738924 
   46100    284.18824  -0.39998321            0    3387.1976    2.7439296     56417951 
   46200    287.23857  -0.77141516            0    3423.1869     2.739462     57109093 
   46300    283.06215  -0.69783428            0    3373.4764    2.6668303     57811353 
   46400    274.64419  -0.41833268            0    3273.4117    2.5571563     58504160 
   46500    279.16099  -0.95045272            0     3326.721    2.5716345     59180840 
   46600    284.02818  -0.50030499            0    3385.1892    2.5838514     59876010 
   46700    283.42986  -0.41453279            0    3378.1429    2.5480465     60592251 
   46800    282.73238   -1.0754025            0    3369.1679    2.5122914     61313761 
   46900    284.46818  -0.59001626            0    3390.3445    2.4975629     62038041 
   47000     287.1778  -0.36674756            0    3422.8671    2.4921486     62772833 
   47100    284.53114  -0.56312121            0    3391.1219     2.439909     63518829 
   47200    275.81544  -0.97812702            0    3286.8135    2.3396937     64256737 
   47300    278.16373  -0.42821389            0    3315.3556    2.3320114     64974343 
   47400    283.53525   -0.3934373            0    3379.4203    2.3506748     65705161 
   47500    283.26972  -0.78259688            0     3375.866    2.3215302     66458281 
   47600    283.01885  -0.98048602            0    3372.6776     2.293776     67218380 
   47700    285.25405  -0.43621977            0     3399.866    2.2856389     67982846 
   47800    287.95138  -0.34079892            0    3432.1144    2.2813257     68759780 
   47900     283.3018  -0.40371456            0    3376.6272    2.2189792     69547077 
   48000    274.86118  -0.87216205            0    3275.5443    2.1290511     70317427 
   48100    279.99055  -0.93961046            0    3336.6203    2.1461127     71066366 
   48200    283.09357  -0.47608374            0    3374.0728    2.1466509     71834232 
   48300    283.07237  -0.34593443            0    3373.9501    2.1233952     72621581 
   48400    283.71465   -0.3335101            0    3381.6187     2.105199     73416155 
   48500    285.87248  -0.38265205            0    3407.2915    2.0982389     74217651 
   48600    287.23823  -0.49114957            0    3423.4631    2.0852854     75030807 
   48700    282.18905  -0.74128349            0    3363.0254    2.0263469     75849228 
   48800    275.94915  -0.79604033            0    3288.5894    1.9641249     76647757 
   48900    282.04877  -0.88617652            0    3361.2083      1.98411     77428808 
   49000    284.54937     -0.64142            0    3391.2609    1.9810677     78233397 
   49100    282.54466  -0.50604454            0    3367.4995     1.946764     79055241 
   49200     281.8228   -0.4187007            0    3358.9822    1.9219611     79874756 
   49300    287.07508  -0.37152068            0    3421.6379    1.9379082     80696669 
   49400     287.7153  -0.38683319            0    3429.2542    1.9220987     81541060 
   49500    278.67815   -1.3609907            0    3320.5548     1.843416     82386803 
   49600    275.34411  -0.36508229            0    3281.8081    1.8028602     83196185 
   49700    283.18414  -0.33906237            0    3375.2893    1.8365737     83996501 
   49800    282.84412   -0.3609851            0    3371.2143    1.8164206     84825197 
   49900    282.82326    -0.398014            0    3370.9286    1.7984604     85663996 
   50000    284.14267  -0.49268884            0    3386.5616    1.7891511     86506802 
   50100    285.10025  -0.78266995            0    3397.6863    1.7775646     87357081 
   50200    283.96557   -1.6221805            0    3383.3211    1.7579723     88212316 
   50300    280.91287  -0.86629148            0     3347.688    1.7179741     89061391 
   50400     281.6048  -0.50267613            0    3356.2996    1.7062799     89897302 
   50500    286.55361  -0.29321957            0    3415.5001      1.72038     90739811 
   50600    285.32947  -0.24744638            0    3400.9539    1.6969069     91604982 
   50700    277.78152  -0.29611185            0    3310.9317    1.6365854     92464886 
   50800    273.92794  -0.38783131            0    3264.9042    1.5995809     93285187 
   50900    283.86342  -0.70430502            0    3383.0212    1.6431547     94093199 
   51000    284.65895  -0.77241103            0    3392.4361    1.6330419     94941056 
   51100    282.41363  -0.29860356            0    3366.1451    1.6058786     95804539 
   51200    281.30798  -0.24136438            0    3353.0228    1.5855161     96659064 
   51300    285.52942  -0.30448149            0    3403.2803    1.5952209     97508504 
   51400    287.65171  -0.99873765            0    3427.8843    1.5931475     98378056 
   51500    280.17878  -0.26576566            0     3339.538    1.5378132     99255446 
   51600    273.77717  -0.29110058            0    3263.2038    1.4901176 1.0008894e+08 
   51700    280.91393  -0.48973741            0    3348.0772    1.5166169 1.008882e+08 
   51800    282.67363  -0.55620526            0    3368.9868    1.5137539 1.0171244e+08 
   51900    284.00089  -0.19872132            0    3385.1656    1.5086681 1.0255862e+08 
   52000    284.59016  -0.58490386            0    3391.8036    1.4988884 1.0341723e+08 
   52100    283.35047   -0.2125662            0    3377.3986    1.4803701 1.0427857e+08 
   52200     281.6232  -0.26999217            0    3356.7516    1.4593706 1.0512955e+08 
   52300    283.38514   -0.3169294            0    3377.7075    1.4568432 1.0596737e+08 
   52400    286.93216  -0.18748393            0    3420.1182    1.4635421 1.0681318e+08 
   52500    284.51478  -0.10623993            0    3391.3838    1.4396734 1.0767621e+08 
   52600    276.03341 -0.026415905            0    3290.3635    1.3859983 1.0851933e+08 
   52700    278.08436 -0.002521152            0    3314.8352    1.3862399 1.0930896e+08 
   52800    284.83078 -0.0016650854            0    3395.2551     1.409632 1.1010298e+08 
   52900    283.46373 -0.021712204            0    3378.9395    1.3923506 1.1093258e+08 
   53000    281.30991 -0.00075073905            0    3353.2863    1.3715348 1.1176259e+08 
   53100    283.12896 -0.0017416691            0    3374.9689    1.3704038 1.1257802e+08 
   53200    288.24295 -0.0020454833            0    3435.9286    1.3850084 1.1340287e+08 
   53300    284.95568 -0.0020655362            0    3396.7436    1.3590166 1.1425371e+08 
   53400    275.26643 -0.0085757107            0    3281.2386    1.3034086 1.1507681e+08 
   53500    277.92015  -0.24281179            0    3312.6375    1.3071129 1.1583415e+08 
   53600    281.49482  -0.02587693            0    3355.4653    1.3156441 1.1658443e+08 
   53700    284.11698 -0.0027413097            0    3386.7453    1.3191675 1.1735855e+08 
   53800    285.03591 -0.0006794977            0    3397.7013     1.314493 1.1815704e+08 
   53900    282.70706 -0.003894122            0    3369.9376    1.2949083 1.1896376e+08 
   54000    278.32676 -0.034281016            0    3317.6929     1.266462 1.1974793e+08 
   54100    281.35622 -0.0034758262            0    3353.8356    1.2723535 1.2049414e+08 
   54200    287.00348 -0.002903631            0     3421.153    1.2897899 1.2125109e+08 
   54300    284.22558 -0.0022538112            0    3388.0404     1.269032 1.2204171e+08 
   54400    278.98993 -0.00013227791            0    3325.6322    1.2377986 1.228166e+08 
   54500    280.63631 -8.8367134e-05            0    3345.2576    1.2377649 1.2354473e+08 
   54600     288.6695 -7.6779759e-05            0    3441.0153     1.265692 1.2427718e+08 
   54700    284.48631 -6.6366239e-05            0    3391.1505    1.2396081 1.250534e+08 
   54800    278.53023 -0.00013542268            0    3320.1525    1.2063872 1.258068e+08 
   54900    281.25835 -0.00012963629            0    3352.6724    1.2114678 1.2650627e+08 
   55000    287.49763 -0.0001093272            0    3427.0463    1.2315018 1.2720897e+08 
   55100    284.75006 -0.00059834358            0    3394.2939    1.2126902 1.2794764e+08 
   55200    281.21348 -0.010982543            0    3352.1267    1.1908527 1.2867447e+08 
   55300    281.50823  -0.84567696            0    3354.8055    1.1869207 1.293638e+08 
   55400    288.44258 -0.012463533            0    3438.2979    1.2086071 1.3004333e+08 
   55500    288.35313 -0.019277257            0    3437.2248    1.2015491 1.3076587e+08 
   55600     279.0125 -0.00046272768            0    3325.9009    1.1562602 1.314881e+08 
   55700    279.07475 -0.0013723598            0     3326.642    1.1508343 1.321374e+08 
   55800    283.37567 -0.00010891044            0    3377.9114    1.1631646 1.3275164e+08 
   55900    285.83435 -4.3992572e-05            0    3407.2196    1.1676903 1.3338447e+08 
   56000    283.14228 -0.0001039296            0    3375.1293    1.1510445 1.3403898e+08 
   56100    275.80006 -0.00028742259            0     3287.608    1.1159664 1.3466716e+08 
   56200    278.15867 -7.5161442e-05            0    3315.7234    1.1208926 1.3522192e+08 
   56300    285.80113 -0.00010740124            0    3406.8235    1.1470288 1.3577135e+08 
   56400    284.19414 -0.00025405967            0    3387.6676    1.1355518 1.3637245e+08 
   56500    280.24811 -0.00037130298            0    3340.6298    1.1148409 1.3697718e+08 
   56600    280.71966 -0.00024027476            0    3346.2509    1.1121126 1.3754427e+08 
   56700    288.62964 -0.00013363247            0      3440.54    1.1388109 1.3810449e+08 
   56800    286.49358 -0.00011273996            0    3415.0777    1.1253999 1.3871599e+08 
   56900    280.45181 -0.00015157689            0    3343.0581    1.0968649 1.3932325e+08 
   57000    280.57597 -0.00040627439            0    3344.5379    1.0930568 1.3987051e+08 
   57100    282.76582 -0.00072028943            0    3370.6413    1.0975637 1.4038331e+08 
   57200    284.02553 -0.00065594601            0    3385.6574    1.0984441 1.4089569e+08 
   57300    283.61346 -0.00046095929            0    3380.7456    1.0928243 1.414148e+08 
   57400    280.89742 -0.00017976272            0      3348.37    1.0784636 1.419256e+08 
   57500     279.8392 -0.00014018098            0    3335.7557      1.07082 1.424002e+08 
   57600    285.07785  -0.00025686            0    3398.2017     1.087438 1.4284907e+08 
   57700    287.12148 -0.00084587636            0    3422.5616    1.0915646 1.4332913e+08 
   57800     280.9715 -0.0011714796            0     3349.252    1.0644362 1.4383372e+08 
   57900    276.05926 -0.0020597454            0    3290.6959    1.0425777 1.4428182e+08 
   58000    285.62971 -0.0032584838            0     3404.777    1.0759019 1.4465986e+08 
   58100    286.85909 -0.0061589052            0    3419.4287    1.0774049 1.4507945e+08 
   58200    281.55329 -0.012285354            0     3356.176    1.0541743 1.4553317e+08 
   58300    279.26288 -0.022534343            0    3328.8635     1.042628 1.4594648e+08 
   58400    285.11955 -0.048945274            0    3398.6501    1.0617886 1.4631504e+08 
   58500    288.68784  -0.71069105            0    3440.5232    1.0737539 1.4671469e+08 
   58600    283.11106 -0.072296386            0     3374.685    1.0482615 1.4715606e+08 
   58700    281.11067  -0.02948348            0    3350.8827    1.0380274 1.4756238e+08 
   58800    282.72598  -0.91972776            0    3369.2473     1.041081 1.4792009e+08 
   58900    284.99405 -0.061207382            0    3397.1418    1.0473656 1.4826302e+08 
   59000    285.03301 -0.0049227385            0    3397.6625    1.0450599 1.4861773e+08 
   59100    279.28039 -0.0023185879            0    3329.0924    1.0215629 1.4896799e+08 
   59200    277.35775 -0.0013589038            0     3306.175    1.0126132 1.4925014e+08 
   59300    285.61626 -0.0013212756            0    3404.6186    1.0411741 1.4947811e+08 
   59400    286.37997 -0.00035551428            0    3413.7232    1.0420647 1.4974985e+08 
   59500    282.22815 -0.00032235016            0    3364.2325    1.0248608 1.5005618e+08 
   59600    280.50484 -0.0010512807            0    3343.6894    1.0167154 1.5033465e+08 
   59700    286.63635  -0.83185743            0    3415.9477    1.0368315 1.5057645e+08 
   59800    292.63137 -0.00023725808            0    3488.2416    1.0569027 1.508705e+08 
   59900    284.89288 -3.9434871e-05            0     3395.997    1.0264096 1.5124444e+08 
   60000    281.11416 -3.1532462e-05            0    3350.9537    1.0105257 1.5158419e+08 
   60100    281.93669 -3.4765888e-05            0    3360.7584    1.0117232 1.5184777e+08 
   60200    286.78668 -4.2493009e-05            0    3418.5715    1.0276214 1.5207029e+08 
   60300     288.9356 -4.9012806e-05            0    3444.1872    1.0336279 1.5231945e+08 
   60400    279.07484 -4.5584513e-05            0    3326.6444   0.99656514 1.5259262e+08 
   60500    278.09331 -5.4918742e-05            0    3314.9444   0.99186423 1.5277661e+08 
   60600    284.40725 -0.00027987604            0    3390.2079    1.0136786 1.5288287e+08 
   60700    285.74514 -0.0018704933            0    3406.1543    1.0176414 1.530037e+08 
   60800    282.69929 -0.00089177446            0     3369.848    1.0058295 1.5315056e+08 
   60900    280.43455 -0.00041489227            0    3342.8522   0.99694726 1.5327726e+08 
   61000    284.73857 -0.00056409882            0    3394.1571    1.0116803 1.5336327e+08 
   61100    289.84497 -9.5891101e-05            0    3455.0272    1.0290683 1.5347587e+08 
   61200    283.07263 -0.00016453454            0     3374.299    1.0038395 1.5365692e+08 
   61300    278.89004 -0.0018529794            0    3324.4398   0.98803072 1.5380852e+08 
   61400    282.82612 -0.0010276242            0    3371.3597    1.0014821 1.5388436e+08 
   61500    287.49379 -0.00046474328            0    3427.0001    1.0175681 1.539513e+08 
   61600    283.33713 -0.0051145556            0    3377.4469    1.0021207 1.5406359e+08 
   61700    273.51152  -0.22517728            0     3260.103   0.96670076 1.5414089e+08 
   61800    279.17683 -0.086784152            0    3327.7734   0.98718151 1.5408761e+08 
   61900    285.32398 -0.0026354087            0    3401.1332     1.009589 1.5399662e+08 
   62000    285.77429 -0.00071896063            0     3406.503    1.0114309 1.5395904e+08 
   62100    280.36867 -0.0007580114            0    3342.0666   0.99223711 1.5396864e+08 
   62200    277.53995 -0.0023728761            0    3308.3458   0.98236135 1.5394722e+08 
   62300    287.61799 -0.0064910335            0    3428.4745    1.0184978 1.5387641e+08 
   62400    288.51086 -0.0051624343            0    3439.1191    1.0216417 1.5387929e+08 
   62500    282.08993 -6.8421538e-05            0    3362.5851   0.99836328 1.5396341e+08 
   62600    280.33783 -9.3134427e-05            0    3341.6995   0.99170616 1.5403422e+08 
   62700    283.93223 -0.000992815            0    3384.5448     1.004206 1.5406715e+08 
   62800    289.89785 -0.0015243626            0     3455.656    1.0249631 1.5411849e+08 
   62900    290.50825 -5.5604578e-05            0    3462.9337    1.0261321 1.5426725e+08 
   63000     279.9308 -1.274081e-05            0    3336.8477   0.98735381 1.544886e+08 
   63100    279.55503 -1.4196472e-05            0    3332.3685    0.9850384 1.5464387e+08 
   63200    285.54882 -1.6897715e-05            0     3403.816    1.0056168 1.5472711e+08 
   63300    286.89837 -2.1639902e-05            0     3419.903    1.0097564 1.5482106e+08 
   63400    279.75685 -5.1122112e-05            0    3334.7742   0.98387587 1.5493836e+08 
   63500    276.05442 -0.00020697929            0    3290.6401   0.97060209 1.5497868e+08 
   63600    283.88034 -0.00072645197            0    3383.9266   0.99860228 1.5490343e+08 
   63700    284.85368 -0.00030736769            0    3395.5295    1.0026081 1.5481359e+08 
   63800    282.38342 -0.00010274141            0    3366.0835   0.99439937 1.5473796e+08 
   63900    280.64444 -0.00011894811            0    3345.3544   0.98888379 1.546428e+08 
   64000    283.53308 -0.003359438            0    3379.7845   0.99992535 1.5450887e+08 
   64100    288.43564 -0.087814614            0    3438.1399    1.0179626 1.5438422e+08 
   64200    284.21823  -0.01132925            0    3387.9437    1.0034735 1.5433351e+08 
   64300    277.25029 -0.00011177926            0    3304.8952   0.97913208 1.5429407e+08 
   64400    281.24845 -0.0001397413            0    3352.5544   0.99401386 1.541758e+08 
   64500    285.19156 -0.00045027827            0    3399.5569    1.0089044 1.540299e+08 
   64600     284.4084 -0.00037259902            0    3390.2215    1.0068668 1.5391779e+08 
   64700    281.89842 -0.00051788315            0    3360.3018   0.99852407 1.5383404e+08 
   64800    280.79153 -0.00043867371            0    3347.1075   0.99518456 1.5374421e+08 
   64900    284.10042 -0.0042133288            0    3386.5465    1.0076188 1.5363585e+08 
   65000    287.31777  -0.26551859            0    3424.6368    1.0193295 1.5355827e+08 
   65100    283.00254 -0.00065935168            0     3373.463    1.0042431 1.5355706e+08 
   65200    278.51214 -0.0002703279            0    3319.9366   0.98817798 1.5357743e+08 
   65300    282.68453 -0.00012496628            0    3369.6728    1.0031155  1.53557e+08 
   65400    289.23055 -0.00071221591            0    3447.7024    1.0263534 1.5355555e+08 
   65500     285.7064 -0.022340871            0     3405.672    1.0131078 1.5366479e+08 
   65600    282.82929 -0.0011235404            0    3371.3974    1.0016822 1.5385533e+08 
   65700    282.06329 -0.00020261826            0    3362.2674   0.99749925 1.540822e+08 
   65800    283.61617 -0.00026799171            0    3380.7781    1.0013693 1.5433171e+08 
   65900    287.68055 -0.0001202764            0    3429.2266    1.0137712 1.5462833e+08 
   66000    286.86585 -0.00012230038            0    3419.5152    1.0082752 1.550309e+08 
   66100    278.16097 -0.00038843855            0    3315.7506   0.97459535 1.5552144e+08 
   66200    279.04184 -0.0089702533            0    3326.2421   0.97482896 1.5597535e+08 
   66300    284.75074  -0.10209202            0    3394.2006   0.99214214 1.5637645e+08 
   66400    284.55734 -0.002140595            0    3391.9951   0.98896344  1.56786e+08 
   66500    282.39088 -0.00054728553            0    3366.1719   0.97886388 1.5719789e+08 
   66600    281.66586 -0.0010279957            0    3357.5291   0.97407224 1.5756552e+08 
   66700    287.20694 -0.00077299886            0    3423.5805   0.99135433 1.5786443e+08 
   66800    290.07679 -0.00071254834            0    3457.7898    0.9993885 1.5816009e+08 
   66900    281.45723 -0.00095077943            0    3355.0422   0.96772589 1.5848138e+08 
   67000    279.71903 -0.0049829148            0    3334.3185   0.96039974 1.5870353e+08 
   67100    283.59683   -0.0053611            0    3380.5424   0.97334471 1.5876369e+08 
   67200    286.05658 -0.0012046407            0    3409.8674   0.98224339 1.586905e+08 
   67300    281.14395 -0.00086242119            0     3351.308   0.96653709 1.584997e+08 
   67400    273.87633 -0.00055803945            0    3264.6763   0.94402868 1.580839e+08 
   67500    281.39275 -0.00035895947            0    3354.2742   0.97467714 1.5731515e+08 
   67600    286.14642 -0.0002234391            0    3410.9393   0.99771086 1.5627952e+08 
   67700    284.73015 -0.00013127609            0    3394.0571    1.0002663 1.5510876e+08 
   67800    280.12526 -8.3640286e-05            0    3339.1657   0.99190755 1.5388617e+08 
   67900    280.85234 -6.6177269e-05            0    3347.8327    1.0023739 1.5267461e+08 
   68000     291.5945 -5.8157071e-05            0     3475.882    1.0480579 1.5160466e+08 
   68100    292.97494 -0.00015150961            0    3492.3371    1.0581258 1.5087304e+08 
   68200    284.90551 -0.0043198965            0    3396.1432    1.0316428 1.5048334e+08 
   68300     280.9499 -0.042132673            0    3348.9535     1.018604 1.5028853e+08 
   68400    281.12905 -0.001026942            0    3351.1301    1.0198602 1.502046e+08 
   68500    286.14084 -0.00037053996            0    3410.8727    1.0379246 1.5022163e+08 
   68600    288.18852 -0.0011490322            0    3435.2808    1.0441868 1.5038919e+08 
   68700    278.64637 -0.0012852207            0    3321.5357    1.0075317 1.5069981e+08 
   68800    277.41623  -0.00103939            0    3306.8724    1.0009648 1.5101886e+08 
   68900    283.07744 -0.00027785262            0    3374.3563    1.0193978 1.5131432e+08 
   69000    284.71959 -0.00011628806            0    3393.9312     1.023028 1.5165207e+08 
   69100    283.03478 -4.3315383e-05            0     3373.848    1.0143427 1.5204552e+08 
   69200     279.9585 -5.4033583e-05            0    3337.1778    1.0006232 1.5245498e+08 
   69300    278.62582 -0.00013567742            0     3321.292   0.99345977 1.528233e+08 
   69400    285.43729 -0.00099719052            0    3402.4855    1.0156535 1.5313812e+08 
   69500    287.34813 -0.0040523526            0    3425.2602    1.0201674 1.5348076e+08 
   69600    281.16084 -0.0017810769            0    3351.5084   0.99570886 1.5386517e+08 
   69700    277.95862 -0.0015184026            0    3313.3373      0.98225 1.5419705e+08 
   69800    286.39777 -0.00048010738            0    3413.9353    1.0105111 1.5443542e+08 
   69900    289.08584 -0.00012013578            0    3445.9781     1.018322 1.5468928e+08 
   70000    283.35619 -4.5806344e-05            0    3377.6792   0.99617667  1.54994e+08 
   70100    279.59811 -4.2474303e-05            0    3332.8819   0.98127879 1.5526028e+08 
   70200    282.67269 -6.8848687e-05            0    3369.5317   0.99097139 1.554323e+08 
   70300    289.06234 -0.00028078598            0    3445.6978    1.0125436 1.5555939e+08 
   70400    284.63512 -0.0012644339            0    3392.9232   0.99599173 1.5572231e+08 
   70500    276.45354 -0.00034273364            0    3295.3975   0.96658545 1.5584767e+08 
   70600    281.08802 -0.00011440332            0     3350.642   0.98288927 1.5583186e+08 
   70700    286.11906 -0.00020142354            0    3410.6132    1.0010773 1.557391e+08 
   70800    285.03408 -0.00024527067            0    3397.6799   0.99787501 1.5564641e+08 
   70900    278.39649 -0.00015040687            0    3318.5582   0.97531851 1.5553774e+08 
   71000    277.65011 -0.00014674976            0    3309.6612   0.97404023 1.5532432e+08 
   71100    289.52937 -0.0026733439            0    3451.2625    1.0177166 1.5501842e+08 
   71200    286.79399 -0.0038115399            0     3418.655    1.0097231 1.5476932e+08 
   71300    280.64864 -0.0034013875            0    3345.4012   0.98942794 1.5455961e+08 
   71400    280.74583 -0.00063379019            0    3346.5625   0.99139074 1.543074e+08 
   71500    286.30325  -0.10011745            0    3412.7089    1.0128297 1.5401791e+08 
   71600    290.41062 -0.0072570359            0    3461.7627    1.0290331 1.5377969e+08 
   71700    280.60809 -0.00041858164            0    3344.9208   0.99516877 1.5364621e+08 
   71800     278.4508 -0.0024123166            0    3319.2034   0.98842858 1.5350439e+08 
   71900    284.61364 -0.00054166968            0    3392.6679    1.0115655 1.5331337e+08 
   72000    287.18735 -7.2994046e-05            0    3423.3476    1.0217417 1.5315907e+08 
   72100    281.58044 -0.00014969072            0    3356.5118    1.0022754 1.5308545e+08 
   72200    276.71625 -0.0039383806            0    3298.5256    0.9853863 1.5301893e+08 
   72300    286.50932 -0.085890899            0    3415.1796    1.0209979 1.5289751e+08 
   72400    289.57125 -0.00063133425            0    3451.7638    1.0323275 1.5284677e+08 
   72500    282.16158 -0.00064939072            0    3363.4386    1.0053411 1.5293355e+08 
   72600    278.98697 -0.0012060281            0    3325.5958   0.99316323 1.5306693e+08 
   72700    283.60895 -0.0034315197            0    3380.6889    1.0087483 1.5319844e+08 
   72800    287.90293 -0.008437613            0    3431.8691    1.0227251 1.5339194e+08 
   72900    282.65828   0.46699488            0     3369.827    1.0067876 1.5371479e+08 
   73000    274.98323 -0.011714602            0    3277.8597   0.97235446 1.5409747e+08 
   73100    278.51058 -0.0056494683            0    3319.9127   0.98272528 1.5442795e+08 
   73200    282.91478 -0.0023312988            0    3372.4152   0.99633257 1.5472802e+08 
   73300    285.99597 -0.0008714085            0    3409.1453     1.005024 1.5506068e+08 
   73400    283.84746 -0.00039391401            0     3383.535   0.99483764 1.5547165e+08 
   73500    277.57348 -0.00086170926            0     3308.747   0.97001617 1.5592552e+08 
   73600    279.11085 -0.0058846972            0    3327.0679   0.97291612 1.5632109e+08 
   73700    287.91042 -0.00039613002            0    3431.9665    1.0013841 1.5666613e+08 
   73800    285.00605 -0.00030042607            0    3397.3458   0.98877711 1.5706308e+08 
   73900    279.99701 -0.00023206729            0    3337.6368   0.96886129 1.5747451e+08 
   74000    281.00124 -0.00021931524            0    3349.6075   0.97026358 1.5781089e+08 
   74100    290.32917 -0.00043167527            0    3460.7986    1.0008253 1.5807049e+08 
   74200    288.58413 -0.00074540712            0    3439.9969   0.99297824  1.58362e+08 
   74300    283.63094 -0.00041068113            0     3380.954   0.97400699 1.5867552e+08 
   74400    281.30062 -0.00016333969            0    3353.1762   0.96451308 1.5892092e+08 
   74500    282.61239 -8.5270799e-05            0    3368.8129   0.96831885 1.590345e+08 
   74600    288.14716 -7.2401378e-05            0    3434.7889   0.98744148 1.5900893e+08 
   74700     288.4564 -0.00012618886            0     3438.475   0.98917579 1.5890048e+08 
   74800      278.934 -0.00025588464            0    3324.9653   0.95781339 1.5868614e+08 
   74900    280.36808 -0.00017803666            0    3342.0601   0.96563159 1.5821061e+08 
   75000    286.00032 -7.0251099e-05            0    3409.1979   0.98986137 1.574384e+08 
   75100    286.38445 -6.1310237e-05            0    3413.7769   0.99753197 1.564376e+08 
   75200    277.72934 -6.514448e-05            0    3310.6057   0.97479462 1.5524841e+08 
   75300    279.50433 -4.5771942e-05            0    3331.7641   0.98985187 1.5386395e+08 
   75400    284.95843 -3.5059929e-05            0    3396.7784     1.018456 1.5246065e+08 
   75500    286.12199 -2.7518716e-05            0    3410.6483    1.0305887 1.5128101e+08 
   75600    279.74693 -5.3594575e-05            0    3334.6559    1.0134572 1.504106e+08 
   75700    278.22807 -0.00017167283            0    3316.5506    1.0122687 1.4976958e+08 
   75800    283.09469 -7.8806799e-05            0    3374.5621    1.0330881 1.4931825e+08 
   75900    284.08677 -0.00010850197            0    3386.3878    1.0383416 1.4908339e+08 
   76000    282.95906 -0.00010496264            0    3372.9453    1.0345036 1.4904251e+08 
   76100    281.37074 -0.00015754689            0     3354.012    1.0279992 1.491436e+08 
   76200    282.49446 -0.00092116617            0    3367.4063    1.0307489 1.493397e+08 
   76300    287.68456 -0.002286506            0    3429.2723    1.0476431 1.4963075e+08 
   76400    286.27199 -0.00073567879            0    3412.4357    1.0395617 1.5005376e+08 
   76500    277.83213 -0.00026610209            0    3311.8308    1.0055858 1.5055035e+08 
   76600     279.0266 -0.00011911412            0    3326.0693    1.0069189 1.5099746e+08 
   76700    283.34756 -0.0053682736            0     3377.571    1.0197871 1.514002e+08 
   76800    283.68461  -0.34816283            0     3381.246    1.0179766 1.518087e+08 
   76900    282.77154 -0.00043283966            0    3370.7097     1.012242 1.522193e+08 
   77000    282.40972 -7.876144e-05            0     3366.397    1.0083585 1.5261007e+08 
   77100    285.02334 -0.0001556123            0     3397.552    1.0152745 1.5297324e+08 
   77200    286.79944 -0.00023845756            0    3418.7235    1.0191665 1.5333864e+08 
   77300     281.6124 -0.00038357915            0    3356.8925   0.99829262 1.5371361e+08 
   77400     277.3698 -0.00071520695            0    3306.3193    0.9812971 1.5401994e+08 
   77500    284.50713 -0.00089295708            0    3391.3979    1.0052822 1.5421385e+08 
   77600    288.06594 -0.00068599752            0      3433.82    1.0166582 1.5439572e+08 
   77700    283.78122 -0.00041094573            0    3382.7454    1.0001288 1.5461303e+08 
   77800    280.72601 -0.00036540573            0    3346.3264   0.98815362 1.5480201e+08 
   77900    282.51881 -0.00035988888            0    3367.6972   0.99370012 1.5492106e+08 
   78000    291.06343 -0.00055844203            0     3469.551    1.0231674 1.5500985e+08 
   78100    289.07413 -0.00019567693            0    3445.8384      1.01509 1.5517551e+08 
   78200    280.77305 -8.3978869e-05            0    3346.8875   0.98466349 1.5537678e+08 
   78300    281.76444 -0.00014999882            0    3358.7051   0.98735006 1.5550112e+08 
   78400    285.43422 -0.00035938932            0    3402.4496   0.99981665 1.5556221e+08 
   78500    285.95795 -0.0006299554            0    3408.6923    1.0013159 1.5561425e+08 
   78600    278.86308 -0.00052798279            0    3324.1197   0.97620259 1.5565727e+08 
   78700    277.09231 -0.00069348973            0    3303.0115    0.9703692 1.5559863e+08 
   78800    285.64508 -0.00073190912            0    3404.9628    1.0014242 1.5542717e+08 
   78900    286.14493 -0.0004758233            0    3410.9213    1.0042735 1.5525744e+08 
   79000    282.51466 -0.00027919053            0    3367.6477   0.99246789 1.5511113e+08 
   79100    280.35036 -0.00014693772            0    3341.8488   0.98595853 1.5493908e+08 
   79200    284.20263 -0.00015428776            0    3387.7689    1.0009431 1.547167e+08 
   79300    291.63129 -0.00037116569            0    3476.3203    1.0284522 1.5451421e+08 
   79400    284.76621 -0.00026303051            0    3394.4868    1.0048267 1.5442433e+08 
   79500    280.84289 -0.00073236467            0    3347.7193   0.99135092 1.5436694e+08 
   79600    282.75943   -0.4302099            0    3370.1356   0.99836705 1.5427741e+08 
   79700    285.80566 -0.00018583765            0    3406.8774    1.0100709 1.5418334e+08 
   79800    284.99032 -0.00010947667            0    3397.1585    1.0075365 1.5413024e+08 
   79900    277.31137 -0.0005821682            0    3305.6228   0.98058826 1.5409882e+08 
   80000    279.03895 -0.00013301126            0    3326.2165   0.98738343 1.5399177e+08 
   80100     286.3778 -0.00013407455            0    3413.6975     1.014414 1.5383055e+08 
   80200    285.50682 -0.00016782697            0    3403.3152    1.0120903 1.5371481e+08 
   80300    282.18598 -9.4979321e-05            0    3363.7299    1.0007639 1.5364638e+08 
   80400    281.26328 -8.902769e-05            0    3352.7312   0.99791565 1.5358108e+08 
   80500    286.32374 -0.0007883904            0    3413.0524    1.0163532 1.5350797e+08 
   80600    292.77677 -0.00033373019            0    3489.9747     1.039226 1.5351296e+08 
   80700    284.08591 -0.00086142233            0    3386.3769     1.007258 1.5368349e+08 
   80800    280.83431 -0.0003743199            0    3347.6174    0.9941585 1.5392634e+08 
   80900     282.6251 -0.0011400097            0    3368.9634   0.99884298 1.5418127e+08 
   81000    286.61101 -0.0019545715            0    3416.4757    1.0110309 1.5447074e+08 
   81100    286.55014 -0.0050500916            0    3415.7469    1.0083197 1.5485279e+08 
   81200    277.49332  -0.11986622            0    3307.6725   0.97342869 1.553178e+08 
   81300    278.13558  -0.32873499            0    3315.1195   0.97288247 1.5573935e+08 
   81400     284.8095 -0.015413005            0    3394.9877   0.99418834 1.5609841e+08 
   81500    284.80673 -0.0050264909            0     3394.965   0.99182142 1.5647083e+08 
   81600    282.03898 -0.00030471313            0    3361.9775   0.97977246 1.5685644e+08 
   81700    280.49497 -0.00064957911            0    3343.5722   0.97226675 1.5720196e+08 
   81800    285.87253 -0.0011605552            0    3407.6736   0.98920991 1.5747154e+08 
   81900     289.0058 -0.0058104851            0    3445.0182   0.99844103 1.5772498e+08 
   82000    281.67797 -7.9645728e-05            0    3357.6744    0.9714476 1.5799816e+08 
   82100    278.97893 -8.6705428e-05            0    3325.5011   0.96101473 1.5818303e+08 
   82200    282.97579 -0.00056339762            0    3373.1443   0.97463049 1.582077e+08 
   82300    285.09625  -0.10282809            0    3398.3184   0.98252535 1.5809849e+08 
   82400      284.048 -0.010933403            0    3385.9149   0.98040447 1.5787044e+08 
   82500      282.958 -0.00035501773            0    3372.9324   0.97900741 1.5749052e+08 
   82600    282.71812 -0.001166241            0    3370.0722   0.98173318 1.5691999e+08 
   82700    282.52502 -0.0021007632            0    3367.7694   0.98596731 1.5613927e+08 
   82800    280.94383 -0.00093162101            0    3348.9224   0.98670194 1.5514998e+08 
   82900     282.1435 -0.0002196689            0    3363.2235   0.99843362 1.5398178e+08 
   83000      285.787 -5.5653738e-05            0    3406.6551     1.019461 1.5275322e+08 
   83100    285.04837 -2.5460878e-05            0    3397.8505    1.0243187 1.5163589e+08 
   83200    278.76461 -4.1273885e-05            0    3322.9464    1.0079355 1.5070354e+08 
   83300     280.2672 -0.00013626549            0    3340.8576    1.0186254 1.4992577e+08 
   83400    287.31192 -0.00028974425            0    3424.8323    1.0483171 1.4934113e+08 
   83500    287.17535 -0.00083245997            0    3423.2038    1.0500159 1.4902857e+08 
   83600    275.35327 -0.0026868002            0    3282.2797    1.0074387 1.4893237e+08 
   83700     280.4645 -0.0048900248            0    3343.2047    1.0263408 1.4890283e+08 
   83800    286.56945 -0.00058342592            0    3415.9816    1.0480997 1.4898606e+08 
   83900    285.01111 -0.00012873738            0    3397.4062    1.0405833 1.4924625e+08 
   84000    278.86867 -0.00060819116            0    3324.1862    1.0154978 1.4963703e+08 
   84100    279.23518  -0.37632947            0    3328.1794    1.0136793 1.5005757e+08 
   84200    289.16945 -0.010764578            0    3446.9641    1.0468829 1.505112e+08 
   84300    285.74598 -0.00036324048            0    3406.1658    1.0305414 1.5108909e+08 
   84400    280.10138 -0.00010460963            0     3338.881    1.0059659 1.5172268e+08 
   84500    280.70873 -0.00027441675            0    3346.1205    1.0042742 1.5230777e+08 
   84600    287.58147 -0.0014528895            0    3428.0442    1.0252745 1.5284061e+08 
   84700     288.0628 -9.3607273e-05            0    3433.7832    1.0232774 1.533954e+08 
   84800    275.01177 -5.6276876e-05            0    3278.2115   0.97345287 1.539412e+08 
   84900    278.00618 -5.8379199e-05            0    3313.9057   0.98163856 1.543197e+08 
   85000     285.2546 -7.4541752e-05            0    3400.3087    1.0056063 1.5456928e+08 
   85100    286.30279 -0.00012350066            0    3412.8033    1.0078045 1.5479887e+08 
   85200    281.02445 -0.00054000658            0    3349.8838    0.9878077 1.5502083e+08 
   85300    277.97311 -0.004385812            0    3313.5072   0.97618713 1.5516242e+08 
   85400    286.86371 -0.045529998            0    3419.4443    1.0071338 1.5519934e+08 
   85500    289.04156 -0.0094491929            0    3445.4409    1.0144723 1.5525125e+08 
   85600    283.11647 -0.0022444983            0    3374.8195   0.99304219 1.5535138e+08 
   85700    280.69824 -0.00048141295            0    3345.9954   0.98415172 1.554161e+08 
   85800    283.10472 -0.00028617094            0    3374.6814   0.99261977 1.5541132e+08 
   85900    289.37978 -0.0022517273            0    3449.4798    1.0148201 1.5538061e+08 
   86000    291.96831 -0.0019058318            0    3480.3361    1.0236529 1.5541783e+08 
   86100     280.8448 -0.00022706462            0    3347.7426    0.9839258 1.5553298e+08 
   86200    279.93736 -0.00012113161            0    3336.9258   0.98041133 1.5558619e+08 
   86300     285.0046 -0.00043154173            0    3397.3284   0.99834647 1.5555679e+08 
   86400    287.28608 -0.00021191363            0    3424.5244    1.0065881 1.5551821e+08 
   86500    279.89642 -0.00039159576            0    3336.4375   0.98081919 1.5549871e+08 
   86600    276.47108 -0.0013663962            0    3295.6056   0.96943898 1.5539865e+08 
   86700    281.71522 -0.00094946035            0    3358.1175   0.98927228 1.5517175e+08 
   86800    284.42622 -0.0005704269            0    3390.4337    1.0005872 1.5489343e+08 
   86900     284.1185 -0.0014135486            0    3386.7648    1.0012984 1.5461585e+08 
   87000    280.19434 -0.0004766345            0    3339.9887   0.98923601 1.5433975e+08 
   87100    275.96911 -7.4601764e-05            0    3289.6233   0.97639906 1.5401097e+08 
   87200    283.77363 -3.8732826e-05            0    3382.6553    1.0067732 1.5358859e+08 
   87300    288.39191 -7.1156399e-05            0    3437.7063    1.0258523 1.5318519e+08 
   87400    283.48815 -5.641305e-05            0    3379.2523    1.0104016 1.5288309e+08 
   87500    280.35655 -9.5085311e-06            0    3341.9228    1.0009109 1.5262787e+08 
   87600    282.50042 -9.5677456e-06            0    3367.4782    1.0102101 1.5237928e+08 
   87700    285.82224 -3.2311203e-05            0    3407.0753      1.02348 1.5217215e+08 
   87800    287.82537 -8.4542811e-05            0    3430.9529    1.0313855 1.5206406e+08 
   87900    282.76204 -0.00012271036            0    3370.5968     1.013107 1.5208428e+08 
   88000    278.34395 -0.00022442747            0    3317.9318   0.99671667 1.5216982e+08 
   88100    282.55083 -0.0005437844            0    3368.0786    1.0111805 1.5226014e+08 
   88200    287.58736 -0.0013578727            0    3428.1146    1.0281772 1.5241224e+08 
   88300    284.02332 -0.00039722951            0    3385.6312    1.0135265 1.5269939e+08 
   88400     277.1777 -0.0001893193            0    3304.0299   0.98667054 1.5307512e+08 
   88500    282.28021 -0.00089572044            0    3364.8524      1.00243 1.5344212e+08 
   88600    289.61677 -4.585406e-05            0    3452.3069    1.0256479 1.5386646e+08 
   88700    282.67039 -2.2268803e-05            0    3369.5043   0.99732294 1.5444116e+08 
   88800     278.3792 -5.8943218e-05            0    3318.3522   0.97823169 1.5506493e+08 
   88900    282.94756 -0.00062336945            0    3372.8077   0.99054973 1.5564959e+08 
   89000    287.06084 -0.0023107882            0    3421.8374    1.0012089 1.562309e+08 
   89100    283.96928 -0.0006041737            0    3384.9868   0.98654814 1.5684526e+08 
[...]
  190700     285.7628 -0.0037897586            0    3406.3629    1.0033455 1.5519305e+08 
  190800    279.75266 -0.0023494657            0     3334.722   0.98360451 1.5497847e+08 
  190900    275.74898 -0.00023873581            0    3286.9991   0.97129422 1.5469689e+08 
  191000    284.04701 -6.5449954e-05            0    3385.9139     1.003036 1.5430935e+08 
  191100    285.99538 -8.9775066e-05            0     3409.139    1.0124043 1.539301e+08 
  191200    282.98753 -0.000162329            0    3373.2846    1.0038546 1.5360841e+08 
  191300     280.2197 -0.00012704471            0    3340.2914   0.99597514 1.5330936e+08 
  191400    282.69519 -0.00022790948            0    3369.7997    1.0067929 1.5300187e+08 
  191500    290.91873 -9.8316463e-05            0    3467.8266    1.0378645 1.5273886e+08 
  191600    286.24704 -0.00023366234            0    3412.1387    1.0219459 1.5262707e+08 
  191700    280.63099 -0.00023242942            0     3345.194    1.0019765 1.5261477e+08 
  191800    282.06747 -0.00036794466            0     3362.317     1.007061 1.5262148e+08 
  191900    285.35386 -0.00020360336            0    3401.4919    1.0185062 1.5266467e+08 
  192000    285.81518 -6.3579855e-05            0     3406.991     1.019297 1.5279287e+08 
  192100    278.24184 -4.004115e-05            0    3316.7148   0.99090598 1.5300602e+08 
  192200    277.33881 -3.1668712e-05            0    3305.9505   0.98641173 1.532043e+08 
  192300    285.12249 -2.4877476e-05            0     3398.734    1.0130068 1.5336902e+08 
  192400    285.45889 -2.3057941e-05            0     3402.744    1.0127026 1.535961e+08 
  192500    282.11165 -2.6556892e-05            0    3362.8441    0.9988457 1.539009e+08 
  192600    280.37079 -3.308784e-05            0    3342.0925    0.9905413 1.542335e+08 
  192700    286.98038 -5.9937403e-05            0    3420.8805    1.0117076 1.5456663e+08 
  192800    289.94753 -4.7874294e-05            0    3456.2498    1.0194127 1.5498438e+08 
  192900    281.80907 -0.0001784518            0    3359.2371   0.98735685 1.5552468e+08 
  193000    279.72358 -0.00069673202            0    3334.3769   0.97662138 1.5607061e+08 
  193100    283.00945 -0.011150085            0    3373.5348   0.98499105 1.5656076e+08 
  193200    285.24636  -0.26026159            0    3399.9503   0.98967882 1.5701898e+08 
  193300    283.38912  -0.10580438            0     3377.966   0.98059198 1.5746126e+08 
  193400    274.33851 -0.0043587563            0    3270.1819    0.9470939 1.5783763e+08 
  193500    273.51484 -0.00030338993            0    3260.3675   0.94329089 1.5799876e+08 
  193600    282.63355 -4.5743741e-05            0    3369.0651   0.97532284 1.5790426e+08 
  193700    285.91826 -1.459654e-05            0    3408.2198   0.98814902 1.5766598e+08 
  193800    283.91195 -1.0118003e-05            0    3384.3041   0.98328417 1.5733422e+08 
  193900    279.11375 -1.9075242e-05            0    3327.1083   0.96948585 1.5687665e+08 
  194000    280.56121 -0.0001338265            0    3344.3622   0.97857134 1.5622612e+08 
  194100     290.9002 -0.00031446673            0    3467.6056    1.0198516 1.5542665e+08 
  194200    288.37201 -0.00011400467            0     3437.469    1.0160981 1.5464503e+08 
  194300    283.53506 -6.8776703e-05            0    3379.8113    1.0038573 1.5390521e+08 
  194400    282.25139 -0.00013830823            0    3364.5096    1.0040926 1.531725e+08 
  194500    282.56823 -0.00033055228            0    3368.2863     1.009916 1.5246021e+08 
  194600    284.04885 -0.00042283508            0    3385.9355    1.0195793 1.5180652e+08 
  194700    284.59099 -0.00030014998            0    3392.3981    1.0252255 1.5125865e+08 
  194800    281.31426 -0.00023306425            0    3353.3387    1.0162618 1.5083586e+08 
  194900    279.29314 -0.00016157692            0    3329.2465    1.0112006 1.5050171e+08 
  195000    284.86629 -0.00011473235            0    3395.6799    1.0331844 1.5023867e+08 
  195100    289.66754 -0.00024897318            0     3452.912    1.0513796 1.5012699e+08 
  195200    282.26067 -0.00012635578            0    3364.6203     1.023837 1.5022356e+08 
  195300    279.20411 -4.7796427e-05            0    3328.1853     1.011334 1.5043391e+08 
  195400    282.36965 -5.1296141e-05            0    3365.9195    1.0209757 1.5070274e+08 
  195500     285.5199 -0.00011958593            0    3403.4712    1.0298739 1.5106744e+08 
  195600    284.31643 -0.00019419748            0    3389.1254    1.0221743 1.5156381e+08 
  195700    276.37431 -0.00040173348            0     3294.453   0.98977522 1.5215264e+08 
  195800    276.66338 -0.0010063783            0    3297.8982   0.98720697 1.5270794e+08 
  195900    284.76281 -0.0027330487            0    3394.4438    1.0127356 1.5321621e+08 
  196000    284.40522 -0.0074215222            0    3390.1766    1.0078651 1.5376265e+08 
  196100    281.46609 -0.018905181            0    3355.1299   0.99377302 1.5432992e+08 
  196200    280.49182 -0.006135349            0    3343.5291   0.98698501 1.548552e+08 
  196300    286.90851 -0.002783879            0    3420.0211    1.0065763 1.5531529e+08 
  196400    288.44191 -0.012717182            0    3438.2896    1.0089222 1.5578097e+08 
  196500    280.36975   -0.1129788            0    3341.9672   0.97762707 1.5625494e+08 
  196600    279.03603 -0.022886631            0    3326.1589   0.97079206 1.5661873e+08 
  196700    282.32425 -0.003535295            0    3365.3748   0.98087253 1.5683854e+08 
  196800    284.61017 -0.00021934449            0    3392.6269   0.98804736 1.5696077e+08 
  196900    283.98325 -4.0847356e-05            0     3385.154   0.98549574 1.5702056e+08 
  197000    277.77363 -1.6828324e-05            0    3311.1337   0.96404997 1.5700375e+08 
  197100    275.60109 -1.3041217e-05            0    3285.2365   0.95761482 1.5682259e+08 
  197200    285.21668 -1.3272988e-05            0    3399.8568   0.99330782 1.5646227e+08 
  197300    286.20942 -1.7908043e-05            0    3411.6906   0.99936882 1.5605464e+08 
  197400     282.1598 -6.1127177e-05            0    3363.4179   0.98786946 1.5563745e+08 
  197500    279.93686 -0.0032018688            0    3336.9167   0.98305789 1.5516662e+08 
  197600    285.27332 -0.099958829            0    3400.4321    1.0052046 1.5462794e+08 
  197700    292.61371 -0.002053456            0    3488.0292    1.0345131 1.541262e+08 
  197800     285.1004 -0.00044010327            0    3398.4703    1.0103215 1.5376469e+08 
  197900    281.86264 -0.00013522605            0    3359.8756    1.0008028 1.5346435e+08 
  198000    282.31881 -0.00011067826            0    3365.3133     1.004323 1.5317396e+08 
  198100    285.02784 -0.00065114878            0    3397.6051    1.0157321 1.5290667e+08 
  198200    286.91847 -0.0020350557            0    3420.1405    1.0237911 1.527091e+08 
  198300    281.22295 -0.00025154714            0    3352.2503     1.004148 1.5260595e+08 
  198400    277.70207 -6.7575944e-05            0    3310.2807   0.99210591 1.525245e+08 
  198500    284.16062 -8.54325e-05            0    3387.2682    1.0158788 1.524195e+08 
  198600    287.53548 -0.00049945011            0     3427.497    1.0282252 1.5237776e+08 
  198700     284.3426 -0.0032521714            0    3389.4343    1.0162806 1.5245638e+08 
  198800    282.02299 -0.0007985313            0    3361.7864    1.0069131 1.5261976e+08 
  198900     282.1735 -0.0012296237            0    3363.5801    1.0060419 1.5283339e+08 
  199000     286.3739 -0.00014997008            0     3413.651    1.0192377 1.5310045e+08 
  199100    291.97232 -0.0001175521            0    3480.3857    1.0365239 1.5349028e+08 
  199200    282.81284 -0.0019878359            0    3371.2004    1.0002361 1.5406869e+08 
  199300    279.14953 -0.0052563319            0    3327.5296   0.98314817 1.5471571e+08 
  199400    282.77714 -0.022322194            0    3370.7545   0.99190157 1.5534085e+08 
  199500    286.03432 -0.0062453117            0    3409.5971    0.9993214 1.5596571e+08 
  199600    283.63538 -0.00079907413            0    3381.0065   0.98686029 1.5661126e+08 
  199700    273.72347 -3.7477431e-05            0    3262.8548    0.9487778 1.572049e+08 
  199800    276.54529 -4.5031904e-05            0    3296.4916   0.95621362 1.5759045e+08 
  199900    283.04171 -5.480059e-05            0    3373.9305   0.97751638 1.5777745e+08 
  200000     284.7301 -5.897515e-05            0    3394.0565   0.98285906 1.5785584e+08 
Loop time of 200.621 on 6 procs for 200000 steps with 4000 atoms

Performance: 86.133 ns/day, 0.279 hours/ns, 996.904 timesteps/s
99.9% CPU use with 6 MPI tasks x no OpenMP threads

MPI task timing breakdown:
Section |  min time  |  avg time  |  max time  |%varavg| %total
---------------------------------------------------------------
Pair    | 4.6805     | 4.8373     | 5.0447     |   5.2 |  2.41
Neigh   | 166.89     | 167.98     | 168.98     |   5.9 | 83.73
Comm    | 12.91      | 14.143     | 15.44      |  23.6 |  7.05
Output  | 0.059415   | 0.066651   | 0.097569   |   5.4 |  0.03
Modify  | 11.127     | 11.287     | 11.471     |   3.5 |  5.63
Other   |            | 2.306      |            |       |  1.15

Nlocal:    666.667 ave 709 max 636 min
Histogram: 1 0 1 1 1 1 0 0 0 1
Nghost:    88.8333 ave 96 max 83 min
Histogram: 2 0 0 1 1 0 0 1 0 1
Neighs:    5.66667 ave 8 max 4 min
Histogram: 2 0 1 0 0 1 0 1 0 1

Total # of neighbors = 34
Ave neighs/atom = 0.0085
Neighbor list builds = 200000
Dangerous builds not checked
WARNING: One or more atoms are time integrated more than once (../modify.cpp:266)
Setting up Verlet run ...
  Unit style  : real
  Current step: 0
  Time step   : 1
Memory usage per processor = 8.70014 Mbytes
Step Temp E_pair E_mol TotEng Press Volume 
       0     284.7301 -5.897515e-05            0    3394.0565   0.98285906 1.5785584e+08 
     100    282.33065 -0.052241387            0    3365.4024   0.97485224 1.5780394e+08 
     200    279.63889  -0.19224825            0    3333.1758   0.96727532 1.5750517e+08 
     300     286.5455 -0.00092535964            0    3415.6958   0.99504861 1.569161e+08 
     400    282.91599 -0.00014050871            0    3372.4318   0.98685887 1.5621435e+08 
     500     282.0948 -0.00087284341            0    3362.6423     0.989327 1.5537225e+08 
     600    289.28689 -0.00052909237            0    3448.3743     1.020769 1.5442572e+08 
     700    282.72528 -0.00019318405            0    3370.1585    1.0031381 1.5357566e+08 
     800    282.52659  -0.01103514            0    3367.7792    1.0078861 1.5274331e+08 
     900    283.74424 -0.031788075            0    3382.2731     1.017503 1.5194898e+08 
    1000     282.3478 -0.00012201473            0    3365.6589    1.0170805 1.5126819e+08 
    1100    281.02195 -0.0030743493            0    3349.8515    1.0160887 1.5070442e+08 
    1200    286.60469 -0.00015558061            0    3416.4021    1.0391942 1.5028134e+08 
    1300    281.44823 -0.00061903912            0    3354.9353    1.0215042 1.5013318e+08 
    1400    282.87098 -0.00016933657            0    3371.8953    1.0262234 1.5019829e+08 
    1500    284.49324 -0.00015616548            0     3391.233    1.0299007 1.5052031e+08 
    1600    280.76717 -0.00031614511            0    3346.8172    1.0121023 1.5116121e+08 
    1700    283.03285 -0.00082825524            0    3373.8242    1.0141434 1.5207426e+08 
    1800    283.12507 -0.071400608            0    3374.8529    1.0063445 1.5329329e+08 
    1900    283.75225 -0.0032827914            0    3382.3971    0.9987823 1.5480528e+08 
    2000    283.39645 -0.00041065498            0    3378.1588   0.98646148 1.5654265e+08 
    2100    280.54386 -0.0030296142            0    3344.1525   0.96544098 1.5834065e+08 
    2200     279.9695 -0.00025996686            0    3337.3089   0.95395795 1.5991896e+08 
    2300    283.96771 -3.225828e-05            0    3384.9688   0.96059538  1.61082e+08 
    2400    284.76288 -1.9778133e-05            0    3394.4474   0.95883246 1.6183006e+08 
    2500      278.048 -1.6534999e-05            0    3314.4043   0.93461775 1.6210795e+08 
    2600    283.51131 -0.00011959505            0    3379.5282    0.9552145 1.6172903e+08 
    2700    282.09238 -0.0037655108            0    3362.6106   0.95585969 1.6081047e+08 
    2800    281.49326 -0.0024905089            0    3355.4702   0.96222572 1.5940746e+08 
    2900    286.99853 -0.00049642867            0    3421.0964   0.99193759 1.5765716e+08 
    3000    283.20062 -0.00041789067            0    3375.8244   0.98988208 1.558939e+08 
    3100    279.91718 -0.0018091452            0    3336.6836   0.98896835 1.5422863e+08 
    3200    277.77207 -0.00027560344            0    3311.1149   0.99116913 1.5270711e+08 
    3300    283.29226 -0.001117103            0    3376.9161    1.0195128 1.5141195e+08 
    3400    283.62319 -0.00075189515            0    3380.8613    1.0267689 1.5051761e+08 
    3500    278.60968 -4.1922143e-05            0    3321.0997    1.0121173 1.4999745e+08 
    3600    284.65495 -0.00027985095            0    3393.1606    1.0359846 1.4972141e+08 
    3700     279.7217 -8.2768443e-05            0    3334.3551    1.0178555 1.4974715e+08 
    3800    280.90413 -4.9841175e-05            0    3348.4501    1.0209163 1.499293e+08 
    3900    285.11607 -0.00010066495            0    3398.6574    1.0339819 1.5025443e+08 
    4000    282.84458 -0.00045645271            0    3371.5803    1.0221692 1.507799e+08 
    4100    282.13511 -0.00071761971            0     3363.123    1.0154036 1.5140378e+08 
    4200    287.05586 -0.0012501839            0     3421.779     1.028553  1.52075e+08 
    4300    282.23859 -0.00024418657            0     3364.357    1.0060975 1.5286034e+08 
    4400    281.43453 -0.00019716392            0    3354.7724   0.99839251 1.5360118e+08 
    4500    285.81872 -0.0012813619            0     3407.032    1.0096991 1.5424701e+08 
    4600    279.82005  -0.60079358            0    3334.9268   0.98413346 1.5486747e+08 
    4700    281.99196  -0.14418152            0    3361.2732   0.98924922 1.5530843e+08 
    4800    280.55813 -0.0001017541            0    3344.3256   0.98247214 1.5560414e+08 
    4900    279.99622 -0.00021094773            0    3337.6273   0.97972462 1.5572797e+08 
    5000     286.3589 -0.00064825135            0    3413.4717    1.0022507 1.5568711e+08 
    5100     280.9722 -5.0221655e-05            0    3349.2615   0.98369405 1.5564023e+08 
    5200    280.38701 -2.8923408e-05            0    3342.2859    0.9827662 1.5546271e+08 
    5300     286.5209 -0.00015966614            0    3415.4033    1.0061264 1.5517517e+08 
    5400    277.60077 -0.050960704            0    3309.0223   0.97648608 1.5490069e+08 
    5500    285.79593 -0.0019792314            0    3406.7597      1.00803 1.5449001e+08 
    5600    284.00665 -0.00048484514            0    3385.4324    1.0040449 1.5413232e+08 
    5700     279.1996 -0.00018774175            0    3328.1315   0.98910484 1.5381226e+08 
    5800    286.93274 -0.00015313533            0    3420.3125    1.0189719 1.5343923e+08 
    5900    284.25711 -0.0003783219            0    3388.4181    1.0109797 1.5321007e+08 
    6000     280.7954 -0.015141222            0    3347.1388   0.99948991 1.5308204e+08 
    6100    288.38172 -0.0040997577            0    3437.5808    1.0269355 1.5301767e+08 
    6200    279.92675 -0.00011090243            0    3336.7993    0.9959822  1.53148e+08 
    6300    283.90273 -0.00064977052            0    3384.1935    1.0092306 1.5328423e+08 
    6400    286.22931 -0.00013443961            0    3411.9275    1.0160335 1.5350573e+08 
    6500    277.28925 -0.00021474596            0    3305.3596   0.98214138 1.5384291e+08 
    6600    286.16333 -9.1641507e-05            0    3411.1411    1.0118734 1.541013e+08 
    6700    283.38514 -0.00013028758            0    3378.0243   0.99988485 1.5443495e+08 
    6800    277.29308 -8.1553638e-05            0    3305.4054   0.97621287 1.5477935e+08 
    6900    279.87041 -0.00018129584            0    3336.1277   0.98411866  1.54963e+08 
    7000    279.40922 -0.00067916338            0    3330.6297   0.98231525 1.5499159e+08 
    7100    285.91376 -0.0030335728            0    3408.1631    1.0059323 1.5487584e+08 
    7200    282.41244 -0.00095727728            0    3366.4286    0.9942595 1.5477552e+08 
    7300    280.06638 -2.9726252e-05            0    3338.4639   0.98702431 1.5461502e+08 
    7400    287.08934 -5.139132e-05            0    3422.1794    1.0134674 1.5435682e+08 
    7500    278.61227 -4.8716947e-05            0    3321.1305   0.98497285 1.5413261e+08 
    7600    284.20352 -0.001742199            0     3387.778    1.0069165 1.5379913e+08 
    7700    284.42104 -0.00048834247            0    3390.3721    1.0098107 1.5347587e+08 
    7800    278.68974 -0.0003664364            0    3322.0536   0.99127259 1.531956e+08 
    7900     280.5583 -0.00013293038            0    3344.3275    1.0003018 1.5283068e+08 
    8000    282.30899 -9.9441971e-05            0    3365.1963    1.0092261 1.524245e+08 
    8100     281.8235 -0.00012884782            0     3359.409      1.00994 1.520548e+08 
    8200    283.45193 -0.00024315436            0    3378.8203    1.0178479 1.5174522e+08 
    8300    283.07634 -0.0076151482            0    3374.3358    1.0177381 1.515595e+08 
    8400    284.02714 -0.0002976403            0    3385.6769    1.0214158  1.51522e+08 
    8500    283.94196 -5.6205624e-05            0    3384.6618    1.0200724 1.5167609e+08 
    8600    282.18165 -3.6177741e-05            0    3363.6785    1.0113455 1.5203647e+08 
    8700    283.53634 -3.2344757e-05            0    3379.8267    1.0126809 1.5256491e+08 
    8800    284.13629 -6.7321414e-05            0    3386.9783     1.010024 1.532899e+08 
    8900    279.41216 -0.00065133363            0    3330.6647   0.98737366 1.5419918e+08 
    9000    283.38347 -0.00023315593            0    3378.0042   0.99518456 1.5516342e+08 
    9100    281.56027 -0.00020225902            0    3356.2713   0.98224853 1.5619548e+08 
    9200    281.11013 -0.00092251555            0    3350.9047   0.97437102 1.5720644e+08 
    9300    280.30879  -0.56157349            0    3340.7919   0.96571343 1.5810004e+08 
    9400    279.19095 -0.0056549069            0    3328.0229   0.95819319 1.5876859e+08 
    9500    284.76412 -0.0052964633            0    3394.4568   0.97512637 1.5912591e+08 
    9600    286.38486 -0.00045401772            0    3413.7814   0.97974924 1.5927716e+08 
    9700    278.05169  -0.01281652            0    3314.4354   0.95154449 1.5922453e+08 
    9800     283.6242 -0.015000772            0     3380.859   0.97353792 1.5874615e+08 
    9900    293.66752 -0.00011039829            0    3500.5929     1.012685 1.5801564e+08 
   10000    278.83518 -0.0016111694            0    3323.7861   0.96587371 1.5730595e+08 
Loop time of 11.7264 on 6 procs for 10000 steps with 4000 atoms

Performance: 73.680 ns/day, 0.326 hours/ns, 852.777 timesteps/s
100.0% CPU use with 6 MPI tasks x no OpenMP threads

MPI task timing breakdown:
Section |  min time  |  avg time  |  max time  |%varavg| %total
---------------------------------------------------------------
Pair    | 0.083692   | 0.086695   | 0.088797   |   0.6 |  0.74
Neigh   | 9.6575     | 9.6846     | 9.7549     |   1.1 | 82.59
Comm    | 0.51955    | 0.58384    | 0.61173    |   4.1 |  4.98
Output  | 0.16226    | 0.16254    | 0.16389    |   0.2 |  1.39
Modify  | 1.0879     | 1.0901     | 1.0928     |   0.2 |  9.30
Other   |            | 0.1187     |            |       |  1.01

Nlocal:    666.667 ave 696 max 619 min
Histogram: 1 0 0 0 1 0 1 1 0 2
Nghost:    92.3333 ave 110 max 83 min
Histogram: 2 1 0 1 0 1 0 0 0 1
Neighs:    6.16667 ave 9 max 3 min
Histogram: 1 1 0 0 0 2 0 0 0 2

Total # of neighbors = 37
Ave neighs/atom = 0.00925
Neighbor list builds = 10000
Dangerous builds not checked
Total wall time: 0:03:32
