LAMMPS (16 Feb 2016)
Lattice spacing in x,y,z = 3 3 3
Created orthogonal box = (0 0 0) to (30 30 30)
  1 by 2 by 2 MPI processor grid
Created 4000 atoms
Neighbor list info ...
  1 neighbor list requests
  update every 1 steps, delay 0 steps, check no
  max neighbors/atom: 2000, page size: 100000
  master list distance cutoff = 5.73
  ghost atom cutoff = 5.73
  binsize = 2.865, bins = 11 11 11
Setting up Verlet run ...
  Unit style  : real
  Current step: 0
  Time step   : 1
Memory usage per processor = 2.10149 Mbytes
Step Temp E_pair E_mol TotEng Press Volume 
       0       283.13   -0.7732371            0    3374.2098    5710.0785        27000 
     100    281.16894   -4.1872471            0    3347.4194    5571.3984    27397.269 
     200    287.15255    -75.38138            0    3347.5515    5345.3659    28259.206 
     300    287.57967   -80.555884            0    3347.4684    5274.9637    29056.099 
     400    279.23783    -86.44816            0    3242.1392    5025.6443    29892.975 
     500    273.20149     -103.679            0    3152.9537    4649.0995    30663.326 
     600    280.11933   -96.189311            0    3242.9058    4697.4128    31389.345 
     700    282.86484     -103.476            0    3268.3462     4668.858    32120.756 
     800    283.41789   -92.334789            0      3286.08     4605.696    32857.932 
     900     283.8227   -88.066403            0    3295.1738    4490.7391    33601.933 
    1000    283.88972   -85.923073            0     3298.116    4374.3739    34353.783 
    1100    284.16914   -84.839037            0    3302.5308     4254.952    35113.356 
    1200    288.44793   -85.833689            0    3352.5404    4293.6693    35883.517 
    1300    287.49689   -78.739323            0    3348.2981    4153.6461    36669.917 
    1400    278.46575   -84.581638            0    3234.8023    3961.2803    37462.627 
    1500    269.76113   -88.077646            0     3127.545    3717.8633    38249.588 
    1600    278.65718   -87.339661            0    3234.3262    3813.7869    39036.567 
    1700    282.82899   -91.786492            0    3279.6085    3755.5747    39849.151 
    1800    284.11632   -82.978377            0    3303.7619    3742.3022    40682.696 
    1900    283.60739   -87.073675            0    3293.5999    3620.6944     41531.29 
    2000    282.86833   -91.497608            0    3280.3663    3564.7874      42390.7 
    2100    284.43577   -86.795548            0    3303.7526     3478.681    43262.054 
    2200    285.62524    -83.88294            0    3320.8441    3478.9266    44151.755 
    2300    283.29317   -85.212205            0    3291.7159    3336.2886    45056.199 
    2400    282.04406    -82.49379            0    3279.5446    3267.6971    45969.098 
    2500    284.59753   -83.381475            0     3309.095    3298.5121    46897.408 
    2600    283.75714   -78.096254            0    3304.3624    3157.1335    47846.095 
    2700    283.59137   -80.957786            0    3299.5249    3105.5729    48808.602 
    2800    287.05013   -88.816328            0    3332.8957    3092.9427    49787.168 
    2900     286.0484   -77.959579            0    3331.8116    3009.0569    50788.718 
    3000    281.70954    -75.40857            0    3282.6422    2891.8412    51804.835 
    3100    279.62673   -77.981053            0    3255.2421    2834.5006    52825.544 
    3200    284.44775   -81.466481            0    3309.2245    2787.3882    53863.639 
    3300     283.4754   -67.994233            0    3311.1061    2755.5319    54928.568 
    3400    282.71428   -74.725059            0    3295.3024    2699.4768    56010.954 
    3500    284.89938   -70.280328            0    3325.7942    2684.5993    57109.156 
    3600    288.12207   -71.792084            0    3362.6977    2658.3227    58234.705 
    3700    281.46453   -67.493783            0    3287.6364    2536.8414    59382.059 
    3800    276.71407   -72.231951            0    3226.2715    2449.8676    60530.754 
    3900     283.8598   -58.701669            0    3324.9807    2474.3102    61692.695 
    4000     285.6002   -74.168817            0    3330.2597    2398.7948    62894.853 
    4100    281.91364   -79.124636            0     3281.359    2347.9634    64116.663 
    4200    279.79743   -69.042248            0    3266.2157    2265.5461    65345.917 
    4300    283.90977    -62.79208            0     3321.486    2265.1039    66596.647 
    4400    284.27699   -71.332853            0    3317.3226    2243.9758    67881.312 
    4500     281.3907   -67.112576            0    3287.1376    2196.5321    69185.255 
    4600    282.89885   -52.068922            0    3320.1587    2153.5192    70503.558 
    4700    287.74896   -61.195174            0    3368.8471    2155.5879    71856.778 
    4800    282.40081   -67.633307            0    3298.6576    2048.4704    73240.807 
    4900    278.37129   -58.367596            0    3259.8904    2004.8197    74627.096 
    5000    283.55596    -57.69294            0    3322.3677    1988.5388    76030.815 
    5100    282.50433   -54.235088            0    3313.2898     1958.889     77474.78 
    5200    280.70181   -52.499561            0    3293.5388    1915.0051    78942.082 
    5300    283.37492   -55.865068            0    3322.0375    1879.1446      80430.5 
    5400    284.65146   -57.761352            0    3335.3579     1848.788    81954.983 
    5500    282.17069   -59.771707            0    3303.7761    1814.0508    83505.717 
    5600    279.72069   -53.439943            0    3280.9032    1755.2974    85070.621 
    5700    280.43848   -52.400267            0    3290.4991    1719.9506     86656.83 
    5800    282.54241   -48.672351            0    3319.3065    1720.9147    88276.454 
    5900    282.53104   -44.795374            0    3323.0479     1683.477    89933.072 
    6000    282.98015   -55.447224            0    3317.7495    1676.2914    91617.399 
    6100    282.72695   -50.549854            0    3319.6287    1632.0149    93331.009 
    6200    286.65767   -38.842282            0    3378.1915    1622.0153    95077.584 
    6300    290.42429   -41.799794            0     3420.133    1616.9362    96878.972 
    6400     282.7997   -52.187624            0    3318.8581    1543.5816    98712.727 
    6500    277.83326   -49.966028            0    3261.8785    1479.8147    100537.25 
    6600    281.49621   -41.771226            0    3313.7366    1485.2003    102378.43 
    6700     282.4047   -39.153187            0    3327.1841    1449.9614    104274.35 
    6800    282.05432   -47.404443            0    3314.7563    1421.4252    106206.45 
    6900    282.60308   -41.771883            0    3326.9301    1405.4961    108168.13 
    7000    286.59979   -46.278511            0    3370.0653    1393.7833    110170.48 
    7100    284.57177   -44.044099            0    3348.1252    1352.3995    112220.44 
    7200    275.96782   -47.664371            0    3241.9436    1316.6692    114289.26 
    7300    272.61133   -43.069488            0    3206.5283    1269.9156    116345.52 
    7400    280.56633   -45.192172            0    3299.2312     1279.838    118437.97 
    7500    283.46742   -38.669276            0    3340.3359    1268.4532    120607.92 
    7600    284.58638   -40.319357            0    3352.0241    1251.0788    122833.74 
    7700    283.54435   -42.123723            0    3337.7985    1228.0047    125095.18 
    7800    283.48918   -38.977287            0    3340.2873    1194.7611    127386.37 
    7900    286.73629   -39.850142            0    3378.1209    1184.1487    129720.86 
    8000    286.42865   -46.918709            0     3367.385    1165.1224    132112.09 
    8100    277.72332   -38.038963            0    3272.4951    1106.7252    134533.42 
    8200    274.61601   -39.860683            0    3233.6334    1087.0435    136941.03 
    8300     281.5425   -38.769144            0    3317.2904    1096.6027    139390.87 
    8400    283.28147   -39.427889            0    3337.3607     1079.673    141924.54 
    8500    283.82073   -37.926032            0    3345.2907    1053.9585    144514.63 
    8600    283.81129    -35.02594            0    3348.0783    1040.0087    147145.76 
    8700    285.77024   -41.002174            0    3365.4532    1032.0175    149821.05 
    8800    287.74384   -33.274219            0     3396.707    1020.7406     152555.3 
    8900      286.856   -35.964495            0    3383.4334    998.10822    155352.09 
    9000    277.96311    -34.36124            0    3279.0311    953.28774    158176.31 
    9100    275.58229    -34.61992            0    3250.3925    930.88067    160986.79 
    9200    281.46216   -29.487747            0    3325.6143    925.72295     163848.8 
    9300    282.83533   -35.041858            0    3336.4286    917.26063    166800.95 
    9400    283.36364   -29.326924            0    3348.4412    906.67828    169813.22 
    9500    284.47366   -28.604204            0    3362.3956    900.60815    172878.68 
    9600    285.18664   -29.916941            0    3369.5818    873.94034    176005.96 
    9700    287.98651   -30.217694            0    3402.6562    867.07157    179190.09 
    9800     287.4417   -31.227522            0    3395.1521    848.77165    182447.77 
    9900    278.69184   -37.491327            0    3284.5877    809.78235    185738.04 
   10000    275.32043    -32.03837            0    3249.8525    782.76932    189011.74 
   10100    282.07317   -29.987914            0    3332.3974    794.53792    192341.87 
   10200    281.71908   -24.773493            0     3333.391    775.38236     195781.6 
   10300    283.38149   -29.124875            0     3348.856     766.0064    199286.21 
   10400    284.48589    -27.74609            0    3363.3995    762.29892    202855.41 
   10500    284.40755   -29.524939            0    3360.6869     744.4067     206493.5 
   10600    286.29548    -31.64418            0    3381.0722    737.18371    210190.53 
   10700     287.7742   -29.017577            0    3401.3255    729.78877    213968.29 
   10800    281.51611   -28.290442            0    3327.4546    704.60363    217812.13 
   10900    274.79862   -28.350001            0    3247.3208    672.26848     221650.4 
   11000    282.08477   -29.126503            0    3333.3971    673.14539     225515.8 
   11100    282.74696   -24.193644            0    3346.2235    669.05401    229514.26 
   11200    282.56496   -23.514938            0    3344.7327    655.64609    233597.67 
   11300    284.24043   -24.611414            0    3363.6082    643.40926    237747.92 
   11400    285.39093   -27.054984            0     3374.879    641.09145     241981.4 
   11500    285.94184   -28.253421            0    3380.2474    625.98087    246294.68 
   11600    286.68431   -21.923735            0    3395.4276    615.78125    250689.89 
   11700    283.87907   -28.329427            0    3355.5828    602.38265    255156.23 
   11800    278.58976   -25.314185            0     3295.548    581.34108    259652.72 
   11900    282.58708   -25.473964            0    3343.0373    578.82875    264185.31 
   12000    284.70746   -21.730278            0    3372.0565    573.96782    268844.43 
   12100    282.35275   -23.282327            0    3342.4357    557.47407     273607.2 
   12200    282.04942   -20.797037            0    3341.3052    545.59321    278423.71 
   12300    288.00963   -21.570903            0    3411.5786    550.39735    283336.22 
   12400    284.69611   -22.368321            0    3371.2831    532.61856    288382.33 
   12500    280.41194   -28.695028            0     3313.888    517.33205    293461.36 
   12600    279.29017    -18.67529            0     3310.536    508.71192    298571.56 
   12700    280.17182   -18.138153            0    3321.5826    500.86198    303766.59 
   12800    281.71421   -22.404814            0    3335.7017    490.88597    309072.05 
   12900    283.11805   -20.723467            0    3354.1172    488.13164    314487.49 
   13000    283.56261   -23.024509            0    3357.1153    478.45285    320012.09 
   13100    283.61784   -19.902808            0    3360.8954    471.32046    325626.56 
   13200    291.30978   -22.112348            0    3450.3758    473.79673    331360.35 
   13300    286.73739   -19.810884            0    3398.1732    460.51552    337268.31 
   13400    279.79138   -22.934285            0    3312.2515    440.68275    343190.86 
   13500    279.13525   -17.972459            0    3309.3921    431.88334    349116.26 
   13600    281.22678   -14.953133            0     3337.343    427.64769    355152.55 
   13700    281.56959   -15.550221            0    3340.8323    422.58571    361334.16 
   13800     282.2078      -12.956            0    3351.0342    416.91421    367631.49 
   13900    283.75106   -19.247978            0    3363.1382    409.79515    374047.69 
   14000    283.08351   -14.388148            0    3360.0407    402.77554    380580.95 
   14100    288.71026   -14.041152            0      3427.46     403.6075    387224.96 
   14200     290.0849   -16.958503            0    3440.9287    398.02242    394082.68 
   14300    280.47638   -14.514014            0    3328.8372    378.11144    401026.92 
   14400    278.38765   -20.251527            0    3298.2015    369.31462    407926.49 
   14500     281.6953    -14.01461            0    3343.8664    367.75607    414920.81 
   14600    281.87715   -15.317924            0    3344.7308    361.28721    422105.02 
   14700    281.99932   -15.948486            0    3345.5566    356.25799    429420.96 
   14800    283.72096   -14.718915            0    3367.3085    351.29786    436865.27 
   14900    284.77683   -13.451863            0    3381.1618    348.47407    444464.91 
   15000    287.85429   -13.029675            0    3418.2682    345.89826     452215.6 
   15100    291.06836    -14.05172            0    3455.5586     342.8355     460176.7 
   15200    280.95831   -15.083697            0    3334.0122     324.8448    468258.34 
   15300    277.01279    -13.42475            0    3288.6396    315.11558    476273.47 
   15400    279.85152   -12.732313            0    3323.1704    313.46842    484367.25 
   15500    281.57824   -10.619692            0    3345.8659     310.9723     492677.3 
   15600    283.03814   -12.705234            0    3361.1828    306.08038    501185.27 
   15700    283.67921   -12.787156            0    3368.7426    303.79828    509857.32 
   15800    284.45582   -12.631126            0     3378.156    297.58868    518680.61 
   15900    290.63906   -14.873716            0    3449.6193    300.43687    527684.47 
   16000     287.1977   -11.555965            0    3411.9151    291.26413     536948.5 
   16100      277.454   -13.298544            0    3294.0251     275.0656    546236.64 
   16200    276.99498   -11.634192            0    3290.2178    270.34119    555474.08 
   16300    279.84329   -8.2876127            0     3327.517     268.9972    564877.35 
   16400    283.30811   -10.317994            0    3366.7882    267.14112    574546.65 
   16500    283.83778   -11.633912            0    3371.7861    263.30961     584460.2 
   16600    283.14559    -11.87375            0    3363.2951    258.97108    594532.36 
   16700     286.1662   -10.976155            0    3400.1992    256.95349    604757.14 
   16800     288.3757   -8.8978479            0    3428.6153    254.99445    615244.54 
   16900    280.64565    -9.194374            0    3336.1746    243.40578    625911.61 
   17000    271.68287   -8.5524139            0    3229.9779    232.53747    636500.41 
   17100    280.65162   -10.529167            0     3334.911    235.18994    647115.55 
   17200    282.82479   -12.388032            0    3358.9568     233.8659    658135.68 
   17300     284.1025   -9.6360809            0    3376.9394     230.4621       669448 
   17400    284.26578   -9.0573318            0    3379.4645    227.64288    680967.77 
   17500    283.31996   -9.4334768            0    3367.8139    221.98115    692660.06 
   17600    284.14929   -9.3632984            0    3377.7699    218.98463    704511.08 
   17700    287.07835   -7.5969183            0    3414.4515    217.57199    716599.37 
   17800    285.19158   -6.7308557            0    3392.8267      212.535    728961.91 
   17900    276.65046   -6.2896328            0    3291.4556    202.59818    741424.62 
   18000     275.4437   -6.0422827            0     3277.318    198.97529     753824.8 
   18100    282.13933   -8.2104497            0    3354.9635    200.13638    766481.02 
   18200    283.02744   -6.0940531            0    3367.6664    197.25606    779550.18 
   18300    283.81741    -6.139632            0    3377.0375    194.66352    792879.15 
   18400    284.31082    -5.556061            0    3383.5026    191.82134    806434.56 
   18500    285.69314   -6.9880816            0    3398.5482    189.26837    820223.31 
   18600    288.00921   -6.0041225            0    3427.1404    188.35064    834295.95 
   18700    284.91772   -7.2872398            0    3389.0059    182.79833    848646.53 
   18800    275.88417   -5.6261416            0    3282.9847    173.66605    863050.08 
   18900    278.47165   -10.518192            0    3308.9362    173.01697    877407.84 
   19000    282.51201   -4.9944034            0    3362.6221    172.07737    892158.58 
   19100    282.72235   -5.1861882            0    3364.9376    169.43263    907318.84 
   19200    284.04852   -9.0160399            0     3376.916    167.51025     922744.3 
   19300    284.80956   -4.3779209            0    3390.6259    164.92623    938452.56 
   19400    286.66387   -6.9243115            0    3410.1834    163.95773    954455.82 
   19500    288.25688    -5.876732            0      3430.22    161.65401    970801.12 
   19600    282.90879   -6.3818767            0    3365.9642    156.14653     987414.7 
   19700    275.18506   -5.2561658            0    3275.0211    148.88637    1004009.8 
   19800    280.82563   -6.5651164            0    3340.9492    149.62899    1020644.4 
   19900    282.76746   -5.8985747            0    3364.7628     148.1511    1037816.4 
   20000    282.61916   -5.5361673            0    3363.3575    145.41201    1055382.3 
   20100    283.87385   -3.8257048            0    3380.0242    144.26433      1073237 
   20200      285.824   -6.8326036            0    3400.2637    142.53067    1091438.3 
   20300    286.21671   -4.9214895            0     3406.856    140.41164    1110002.2 
   20400     286.9433   -6.0406444            0     3414.398    138.87927    1128891.4 
   20500    282.85756   -4.9970491            0    3366.7384    134.23717    1148065.3 
   20600    278.17293   -6.3901263            0    3309.5033    129.60735    1167312.8 
   20700    282.74989   -6.3640765            0     3364.088    129.84147      1186721 
   20800    284.50399   -3.4355396            0    3387.9258    128.44448    1206704.4 
   20900    282.40112   -8.3858051            0    3357.9088    125.73829    1227098.1 
   21000     282.1389   -6.6926628            0    3356.4763    122.80342    1247692.1 
   21100    287.97846   -3.7873618            0    3428.9906    123.63953    1268693.3 
   21200    284.82873   -3.3249579            0    3391.9073     120.1856    1290274.6 
   21300    279.91084   -4.3109287            0    3332.2989    116.26545    1311995.1 
   21400    279.81941   -3.7038041            0    3331.8162    114.02276    1333809.6 
   21500    280.47909    -4.777638            0    3338.6059    112.46753    1355995.9 
   21600    281.62134   -5.6204207            0     3351.379    111.01409    1378613.8 
   21700    283.52741   -3.3241119            0    3376.3962    110.15977    1401693.1 
   21800     284.0576   -6.4119044            0    3379.6284    108.31163    1425255.8 
   21900    283.41319   -3.4405927            0    3374.9182    107.16641    1449197.2 
   22000    289.94605   -3.8238566            0    3452.4083    106.97363    1473585.8 
   22100    286.40921   -4.6703068            0    3409.4018    104.11504    1498658.5 
   22200     278.0369   -4.7562652            0    3309.5157    99.490695    1523807.3 
   22300    278.73481   -4.5588944            0    3318.0323    97.768591    1548877.9 
   22400     280.7457   -4.1098906            0    3342.4517    96.985004    1574467.3 
   22500    281.63424   -4.7433731            0    3352.4099    95.589462    1600648.8 
   22600    283.89105   -3.8662273            0    3380.1887    95.036661    1627354.4 
   22700    284.57835   -6.1890128            0    3386.0587    93.586729    1654635.7 
   22800    283.54435   -3.8580944            0    3376.0642    91.725172    1682359.5 
   22900    287.42293   -4.4409332            0    3421.7149     91.42648      1710501 
   23000    287.03433    -4.386651            0    3417.1371    89.718917      1739337 
   23100    278.72317   -4.9618468            0    3317.4906    85.751128    1768466.2 
   23200    275.69229   -4.1675518            0     3282.156    83.396408    1797430.1 
   23300    283.79817   -3.4338169            0     3379.514    84.657303    1826904.6 
   23400    283.17985   -4.8797625            0    3370.6975    83.258698    1857379.6 
   23500    282.42556   -3.5922522            0    3362.9937    81.449356    1888325.9 
   23600    284.35746   -2.9773803            0    3386.6373    80.664599    1919716.3 
   23700    285.98816   -5.2732697            0    3403.7798    79.651455    1951768.6 
   23800    284.20007   -3.7292421            0    3384.0093    78.153342    1984405.5 
   23900    282.02614   -4.4471104            0    3357.3776    76.120432    2017379.2 
   24000    283.12257   -5.2892022            0    3369.6053    75.254154    2050718.4 
   24100    285.31568   -4.2860673            0    3396.7509    74.546694    2084746.8 
   24200    284.27955   -4.4479076            0    3384.2381    73.021198    2119491.1 
   24300    282.15977   -3.8930243            0    3359.5246     71.24477    2154662.6 
   24400    284.86271   -3.9040636            0    3391.7333    70.792996    2190276.1 
   24500    286.31102   -6.3196477            0     3406.582    70.065605    2226722.6 
   24600    282.00215    -5.994338            0    3355.5444    67.828997    2263776.5 
   24700    277.83704   -4.1949519            0    3307.6947    65.663597    2300949.1 
   24800     283.7537   -3.0603608            0    3379.3573    66.301799    2338518.8 
   24900    284.86959   -3.9742356            0    3391.7451    65.128318    2377266.2 
   25000    282.00073   -5.3612017            0    3356.1607    63.586371    2416693.9 
   25100    281.97845   -2.9693818            0    3358.2869     62.43918    2456437.3 
   25200    287.37317   -2.7292468            0    3422.8335    62.836628      2496989 
   25300    284.12052   -2.7330508            0    3384.0572    60.896737    2538592.3 
   25400    279.23665   -3.3499836            0    3325.2234    58.837442    2580431.3 
   25500    285.05243   -2.9811545            0    3394.9178    59.189598    2622499.3 
   25600    286.79483   -3.0953078            0    3415.5734    58.506957    2665948.2 
   25700    280.51569   -3.6022306            0    3340.2175    56.296418    2710152.8 
   25800    278.53938   -3.2768865            0    3316.9848    55.010188    2754310.3 
   25900    284.84768   -3.5589488            0    3391.8993    55.410715    2799167.2 
   26000    283.39251   -3.0981144            0    3375.0141    54.156737    2845375.1 
   26100    280.98071     -2.86948            0    3346.4934    52.970701    2892155.5 
   26200    284.24126   -3.0429554            0    3385.1866    52.623605    2939431.8 
   26300    287.32125   -3.3449349            0    3421.5989    52.398341    2987948.8 
   26400    282.62245   -2.6099895            0    3366.3229    50.710277    3037409.6 
   26500    280.03051   -3.3990859            0    3334.6372    49.357203    3087046.8 
   26600    281.05118   -3.6843727            0    3346.5187    48.733175      3137147 
   26700    282.13013   -3.6051122            0    3359.4593    48.129425    3188248.5 
   26800    281.60617   -2.0759431            0    3354.7426    47.293662    3240331.5 
   26900    281.81381   -2.5303387            0    3356.7633    46.552831    3293197.6 
   27000    282.48629   -2.5119028            0    3364.7979    45.931396    3346926.3 
   27100     282.0249   -3.2125735            0    3358.5973    45.154159    3401564.7 
   27200    280.81306   -2.6548321            0    3344.7097    44.190096      3456954 
   27300    281.58707   -2.8844009            0    3353.7065    43.604659    3513096.8 
   27400    283.36118   -1.8704506            0    3375.8683    43.193274    3570294.6 
   27500    283.23039    -2.233342            0    3373.9464     42.47401      3628644 
   27600    281.95836   -3.1892571            0    3357.8275    41.642538    3687826.2 
   27700     280.7917   -3.4167317            0    3343.6931    40.816599    3747692.1 
   27800    280.58568   -2.3291267            0    3342.3249    40.082414    3808306.6 
   27900    283.30108   -2.7789422            0    3374.2434    39.822414    3869986.9 
   28000    284.37004   -2.7971182            0    3386.9675    39.372541    3933088.7 
   28100    283.09157   -2.1352916            0    3372.3896    38.541861    3997290.2 
   28200    286.28583   -1.6662718            0    3410.9351    38.366249    4062342.8 
   28300    288.83413   -3.0764767            0    3439.9013    38.064281    4129061.1 
   28400    280.91688   -3.2848217            0    3345.3173    36.461327    4196825.2 
   28500    276.49392   -3.2466866            0    3292.6326    35.276515    4264170.8 
   28600    284.50263     -2.21917            0     3389.126    35.828543    4332249.6 
   28700    283.06598   -2.1382792            0    3372.0816    35.034883    4402646.2 
   28800    281.29473   -2.8654483            0    3350.2407    34.198437    4474001.5 
   28900    283.68864    -2.879783            0    3378.7623    33.946236    4546170.2 
   29000    285.63187   -2.3128352            0    3402.4931    33.681855    4619958.7 
   29100    283.23558   -2.3573105            0    3373.8842     32.82494    4695148.9 
   29200    280.09289   -1.8899236            0      3336.89    31.958254    4770898.5 
   29300    283.25443   -2.0004642            0    3374.4658    31.799968      4847369 
   29400    285.57762   -1.8406633            0    3402.3186     31.56532    4925769.3 
   29500    283.14846    -2.430194            0    3372.7728    30.804831    5005754.2 
   29600    280.61016   -2.0386152            0    3342.9072    30.017777    5086335.1 
   29700    285.45934   -2.6623261            0    3400.0871    30.080625    5167864.5 
   29800     286.0266   -2.8353194            0     3406.676    29.630695    5251676.7 
   29900    280.77812   -2.0890784            0    3344.8589     28.63993    5336686.9 
   30000    278.77184   -1.9381115            0    3321.0945    27.982636    5421744.6 
   30100    286.07105   -2.3129949            0    3407.7281    28.267876    5508235.4 
   30200    284.35159   -1.5683256            0    3387.9764    27.651005    5597424.7 
   30300    280.19311   -2.2025033            0    3337.7721    26.829472    5687497.6 
   30400    282.32074   -1.8117171            0    3363.5247     26.59034      5778013 
   30500    286.59826    -1.885946            0    3414.4397    26.610293    5870759.3 
   30600    282.76907    -1.347157            0    3369.3335    25.804939    5965639.9 
   30700    279.70504  -0.63524908            0    3333.5213    25.301806    6060956.2 
   30800    287.18927   -2.2772834            0    3421.0933    25.387174    6157357.8 
   30900    286.05653   -1.7720584            0     3408.096    24.889593    6256893.1 
   31000     280.0849   -2.6408296            0    3336.0438    24.018648    6357457.8 
   31100    279.96322   -1.5514651            0    3335.6828    23.609769    6457957.9 
   31200    286.01113   -1.4302916            0    3407.8966    23.733046    6560531.5 
   31300     283.0901   -1.9882367            0    3372.5192    23.119575    6665926.6 
   31400    280.44377   -2.1034964            0     3340.859     22.53789    6772099.3 
   31500    284.22388   -1.2563451            0     3386.766    22.493556    6879319.3 
   31600    286.44313   -2.7678923            0    3411.7085    22.422043    6989428.9 
   31700    282.26445   -3.0864001            0     3361.579    21.643686    7101483.3 
   31800    280.16307    -1.262372            0    3338.3542    21.144306    7213923.2 
   31900    281.62436   -1.3598951            0    3355.6755     20.92242    7327586.9 
   32000    282.02985   -1.5276437            0    3360.3413    20.657766    7443489.3 
   32100    281.34469   -1.5686327            0    3352.1331    20.256238    7561285.4 
   32200    282.27214   -2.2146972            0    3362.5424    20.003593    7680723.5 
   32300    283.68102   -2.1003982            0    3379.4509    19.790367    7802301.4 
   32400    283.53264   -1.6198404            0    3378.1628    19.476677    7926129.6 
   32500    286.29896   -2.0278935            0      3410.73    19.354652    8051794.1 
   32600    291.49208   -2.3776328            0    3472.2836    19.384855    8180987.8 
   32700    281.68124   -2.5329804            0    3355.1805    18.432922    8312479.8 
   32800    277.29403   -2.6447918            0    3302.7719    17.899269    8442453.6 
   32900     281.7275   -2.2758386            0    3355.9891    17.902296    8573282.3 
   33000    282.59049   -1.9887758            0    3366.5632    17.688892    8707794.9 
   33100    282.15148   -1.4673271            0    3361.8516    17.389975    8844887.7 
   33200    283.82202   -1.9991307            0     3381.233    17.211696    8983996.5 
   33300    286.86593  -0.94710467            0    3418.5692    17.117623    9125893.6 
   33400    289.82473  -0.40501818            0    3454.3809    17.028731    9271153.5 
   33500    287.69906   -0.3294518            0     3429.118    16.638448    9419492.8 
   33600    276.94914    1.7330475            0    3303.0386    15.906575    9567961.8 
   33700    277.46035  -0.50309793            0    3306.8963    15.556379    9714847.5 
   33800    282.18314   -1.0792578            0    3362.6169    15.587383    9864670.2 
   33900    282.53369  -0.52618705            0    3367.3486    15.360005     10018779 
   34000    283.43536  -0.61307831            0    3378.0099    15.170339     10175611 
   34100    285.11324  -0.78231559            0    3397.8414    15.022966     10335124 
   34200    287.52938   -1.4800607            0    3425.9447    14.907697     10497698 
   34300    288.77865  -0.51155417            0    3441.8049    14.750495     10663699 
   34400    281.07564  -0.59039298            0    3349.9041    14.132885     10831769 
   34500    275.08109  -0.18986963            0     3278.848    13.626356     10998281 
   34600    281.44402  -0.92310202            0    3353.9626    13.750475     11165566 
   34700    282.40441  -0.12538587            0    3366.2085    13.570604     11338188 
   34800    283.00656  -0.91293041            0    3372.5987     13.38737     11514348 
   34900    284.46306  -0.31578398            0    3390.5577    13.252184     11693366 
   35000    285.71406  -0.20108027            0    3405.5846    13.107513     11875604 
   35100    287.24392  -0.22617383            0    3423.7959    12.974783     12061062 
   35200    286.08796  -0.08873083            0    3410.1539    12.724994     12249741 
   35300    279.11158 -0.026921871            0    3327.0555    12.225816     12439646 
   35400    277.59149  -0.21545883            0    3308.7471    12.014269     12628632 
   35500    284.13645  -0.01701358            0    3386.9632    12.075958     12820866 
   35600    283.27375 -0.035605202            0    3376.6609    11.855897     13018974 
   35700    281.89609 -0.066087292            0    3360.2085    11.618816     13219662 
   35800    285.15811  -0.58780485            0    3398.5708    11.571109     13422600 
   35900    287.79126  -0.11658371            0    3430.4299    11.503809     13630488 
   36000    281.42989 -0.029088131            0    3354.6882    11.078533     13841886 
   36100    270.36202 -0.020677505            0    3222.7647    10.484472     14051068 
   36200    276.77196  -0.39377705            0    3298.7998    10.573871     14258374 
   36300    280.69698  -0.11138033            0    3345.8695    10.567482     14472450 
   36400    284.64396  -0.30197379            0    3392.7279    10.553366     14693424 
   36500    284.85603  -0.31705645            0    3395.2407     10.40085     14919733 
   36600    282.29569 -0.010857623            0     3365.027    10.154241     15148553 
   36700    282.05794 -0.014672592            0    3362.1891    9.9939256     15378540 
   36800    286.65125 -0.017392123            0    3416.9398    10.004641     15612205 
   36900    285.22632  -0.01335082            0    3399.9584     9.804569     15851652 
   37000    278.37187  -0.01847977            0    3318.2465    9.4255634     16092716 
   37100    273.40407 -0.012641116            0    3259.0348    9.1219507     16331676 
   37200     281.7304 -0.039281548            0    3358.2601     9.262837     16572691 
   37300    283.97475 -0.080776956            0    3384.9719     9.197597     16822600 
   37400    283.86955 -0.050985339            0    3383.7477    9.0568681     17078112 
   37500    283.33516 -0.060511328            0     3377.368    8.9049382     17336637 
   37600    284.83277 -0.099256625            0    3395.1812    8.8187011     17598115 
   37700    287.22531  -0.13385876            0    3423.6664      8.75996     17864448 
   37800     284.5836  -0.20237341            0    3392.1079    8.5490998     18135625 
   37900    276.23532  -0.13894624            0    3292.6577    8.1763745     18407035 
   38000    277.84429 -0.021693856            0    3311.9543    8.1063226     18676162 
   38100    283.21321 -0.023114875            0    3375.9518    8.1428461     18951646 
   38200     283.1495 -0.0040174992            0    3375.2114    8.0211481     19235181 
   38300    283.31478 -0.036780046            0    3377.1489    7.9073694     19522781 
   38400    285.42668 -0.083284372            0    3402.2767    7.8487906     19814318 
   38500    287.61341 -0.059679605            0    3428.3668    7.7921925     20111554 
   38600    284.91697 -0.0086054321            0    3396.2756    7.6051413     20413914 
   38700    276.60491 -0.0060154931            0    3297.1963    7.2755582     20716183 
   38800    278.37169 -0.004369909            0    3318.2584      7.21764     21015837 
   38900    283.41974 -0.004624589            0    3378.4322    7.2428553     21322448 
   39000    283.04797 -0.0047852314            0    3374.0005    7.1279641     21637708 
   39100    283.04848 -0.0041920299            0    3374.0072    7.0242922     21957111 
   39200    285.91994 -0.0029475586            0    3408.2369    6.9924667     22280835 
   39300    288.10507 -0.0045240049            0    3434.2827    6.9428338     22611583 
   39400    282.31178 -0.029100472            0    3365.2006    6.7035189     22947402 
   39500    273.96427 -0.035474078            0    3265.6897    6.4123928     23279747 
   39600    279.83256  -0.06529172            0    3335.6114    6.4579019     23610228 
   39700    282.51205  -0.14041969            0    3367.4765    6.4265864     23950953 
   39800    283.48099 -0.0067088395            0    3379.1603    6.3566898     24300147 
   39900     284.3103 -0.0028476809            0    3389.0497     6.283559     24654963 
   40000    285.15765 -0.0038059872            0    3399.1494    6.2116306     25014769 
   40100    287.07479 -0.0075218386            0    3421.9985      6.16338     25380011 
   40200    285.91933  -0.31865944            0    3407.9139    6.0485212     25751334 
   40300    278.75515     -0.18759            0    3322.6461    5.8133705     26124196 
   40400    277.19842 -0.050709557            0    3304.2264    5.7009961     26493462 
   40500    284.11648 -0.010439534            0    3386.7317    5.7619849     26868218 
   40600    283.38138  -0.03006815            0    3377.9495    5.6654691     27254766 
   40700    281.99973 -0.032553908            0    3361.4773     5.558078     27645858 
   40800    284.85286 -0.011261695            0    3395.5087    5.5354252     28040376 
   40900    288.00583 -0.002988148            0    3433.1012     5.517375     28443707 
   41000    282.09747 -0.0016961081            0    3362.6734    5.3273498     28853991 
   41100    271.55337 -0.0022297252            0    3236.9843    5.0572845     29258730 
   41200    277.32119 -0.0014309141            0    3305.7391    5.0951773     29657993 
   41300    280.88313 -0.0077063591            0     3348.192    5.0900251     30069160 
   41400    284.44668 -0.009275795            0    3390.6689    5.0829681     30492882 
   41500    284.90585 -0.004164858            0    3396.1474    5.0198267     30926417 
   41600    282.56506 -0.0066294146            0    3368.2421    4.9090496     31364403 
   41700    281.88837  -0.24302106            0    3359.9395    4.8287435     31803332 
   41800    286.49247 -0.039208863            0    3415.0253    4.8408428     32247494 
   41900      285.799 -0.004814545            0    3406.7935    4.7620848     32702451 
   42000    278.87756 -0.044073969            0    3324.2488    4.5824574     33160159 
   42100    273.74129 -0.0017890778            0    3263.0654    4.4378349     33611431 
   42200    282.41986 -0.00098420322            0     3366.517    4.5176633     34064306 
   42300    284.12142 -0.0022917625            0    3386.7988    4.4830368     34534197 
   42400    283.45385  -0.42948242            0    3378.4139     4.409774     35013662 
   42500    283.02418 -0.035643679            0     3373.686     4.344482     35496901 
   42600    285.40357 -0.037563304            0     3402.047    4.3216026     35984782 
   42700    287.20518 -0.001132273            0    3423.5591     4.289761     36481887 
   42800    282.60584 -0.032084352            0    3368.7028    4.1634468     36985743 
   42900    274.68325 -0.0048999116            0    3274.2907    3.9929626     37484657 
   43000    280.18922 -0.019403912            0    3339.9088      4.01999     37978470 
   43100    283.33783 -0.0065210305            0    3377.4539    4.0114889     38487084 
   43200    283.17592 -0.0010722383            0    3375.5294    3.9556493     39008270 
   43300    283.65717 -0.0060637416            0     3381.261    3.9095382     39535253 
   43400    286.02624 -0.016365648            0    3409.4906    3.8896776     40068639 
   43500    287.55965 -0.00075504848            0    3427.7848    3.8582935     40611680 
   43600    282.56217 -0.0010598063            0    3368.2132    3.7406366     41161068 
   43700    275.33948 -0.001711603            0    3282.1164    3.5975781     41703850 
   43800    280.95599 -0.0029246615            0    3349.0654    3.6242399     42241447 
   43900    283.61699 -0.015781848            0    3380.7723    3.6111934     42795095 
   44000    282.83938 -0.00056280032            0    3371.5182    3.5543219     43361217 
   44100    283.35103 -0.00032597065            0    3377.6174    3.5144773     43932153 
   44200      286.972 -0.00023130831            0    3420.7804    3.5131509     44510369 
   44300    287.54186 -0.00034887533            0    3427.5733    3.4740318     45100953 
   44400     278.3086 -0.00038356886            0    3317.5103    3.3187842     45694720 
   44500    274.59136 -0.0011437443            0    3273.1991    3.2334788     46273778 
   44600    281.22668 -0.0041586711            0    3352.2908    3.2706167     46853692 
   44700    282.79043 -0.0026779573            0    3370.9326    3.2473104     47452427 
   44800    283.95097 -0.0016986078            0    3384.7675    3.2191865     48063470 
   44900    284.62767 -0.0036979006            0     3392.832    3.1857972     48682866 
   45000    285.20113 -0.0042029368            0    3399.6672     3.151694     49308766 
   45100     285.9781 -0.0022503078            0    3408.9309    3.1202621     49941248 
   45200    283.63786 -0.0012577235            0    3381.0355    3.0556844     50579411 
   45300    279.47777 -0.0097846911            0    3331.4377    2.9734344     51215763 
   45400    282.03713  -0.35994841            0    3361.5958    2.9631985     51848951 
   45500    286.38584 -0.0029497708            0    3413.7906    2.9726503     52495871 
   45600    283.41286 -0.0022909894            0    3378.3525    2.9051711     53157618 
   45700    279.54394 -0.0020528017            0    3332.2342    2.8303809     53817429 
   45800    284.68448 -0.0015299932            0    3393.5113    2.8476706     54474343 
   45900      287.466 -0.0022854983            0     3426.667    2.8402612     55150048 
   46000    281.54808 -0.0023812724            0    3356.1237    2.7475869     55836575 
   46100    277.63225 -0.0020616714            0    3309.4463    2.6769728     56512392 
   46200    285.52029  -0.14939505            0    3403.3265     2.720251     57186233 
   46300    285.27598 -0.014111754            0    3400.5495    2.6855007     57883274 
   46400    280.86521  -0.08679688            0    3347.8993    2.6120626     58586791 
   46500    280.68538   -0.2263685            0    3345.6161     2.579419     59283412 
   46600    287.62136  -0.60785957            0    3427.9134    2.6115179     59987794 
   46700    285.03164 -0.050475903            0    3397.6006    2.5580616     60712969 
   46800    280.45875 -0.0015383357            0    3343.1395    2.4874746     61436759 
   46900    280.90118 -0.0015601939            0    3348.4133    2.4627302     62151939 
   47000     285.8582  -0.99660415            0    3406.5073    2.4777325     62874542 
   47100    284.90729 -0.044504708            0    3396.1243    2.4402843     63615768 
   47200    281.73822 -0.023640157            0    3358.3691    2.3852765     64360065 
   47300    281.35517 -0.00047167981            0    3353.8262    2.3550477     65098887 
   47400    285.08307 -0.00091526245            0    3398.2632    2.3593092     65842265 
   47500    285.89203 -0.0075607018            0    3407.8996    2.3390016     66601989 
   47600    280.89459 -0.011110182            0    3348.3252    2.2719783     67367966 
   47700    273.76367 -0.0022098956            0    3263.3317    2.1899417     68117849 
   47800    280.75895 -0.00024961801            0    3346.7193     2.221913     68853340 
   47900    283.93841 -0.00029839314            0    3384.6192    2.2225362     69613542 
   48000    283.62677 -0.00069715505            0    3380.9039     2.195481     70394029 
   48100    283.00849 -0.0018470486            0    3373.5327    2.1665221     71179376 
   48200    284.87391 -0.0015667631            0    3395.7694    2.1569482     71966589 
   48300    287.53786 -0.0015006834            0    3427.5243    2.1532403     72764663 
   48400    283.59361 -0.0033206644            0    3380.5061    2.1003618     73573195 
   48500     275.2545 -0.0057088753            0    3281.0993    2.0168604     74366076 
   48600    279.87026 -0.0025896348            0    3336.1235    2.0297062     75134796 
   48700    283.84485 -0.030415848            0    3383.4738    2.0371297     75922285 
   48800    282.94659 -0.015529239            0    3372.7812    2.0092977     76731334 
   48900    282.74866 -0.0002192479            0    3370.4371     1.986873     77544130 
   49000    285.68631 -7.8926578e-05            0    3405.4549     1.986599     78360599 
   49100    287.81025 -0.00025375591            0    3430.7725    1.9803582     79191935 
   49200    281.49268 -0.0001043541            0    3355.4656     1.916579     80031122 
   49300    274.54549 -4.6124599e-05            0    3272.6534    1.8505041     80843070 
   49400    281.07335 -0.0005364672            0    3350.4667    1.8761734     81632865 
   49500    283.15489 -0.063463332            0    3375.2162    1.8713189     82446213 
   49600    283.23823 -0.001325201            0    3376.2718    1.8532694     83278207 
   49700     283.9443 -0.0001399674            0    3384.6896    1.8393714     84116702 
   49800     286.0622 -0.00082557441            0    3409.9348    1.8346625     84961571 
   49900    286.86337 -0.015488481            0    3419.4703    1.8214241     85817665 
   50000     281.0523 -0.0048368069            0    3350.2114    1.7668918     86675001 
   50100    276.20533 -0.003101086            0    3292.4361    1.7199584     87504712 
   50200    283.39779 -0.041993631            0    3378.1331    1.7484571     88316923 
   50300    284.78449 -0.0017209605            0    3394.7033    1.7405106     89157431 
   50400    282.12016 -0.0069803065            0    3362.9386     1.707842     90012390 
   50500    281.31549 -0.0017879957            0    3353.3518    1.6871165     90858684 
   50600    287.57805 -0.00020311797            0    3428.0048    1.7087552     91705286 
   50700    287.30845 -0.0012481496            0      3424.79    1.6910387     92579095 
   50800    279.40864 -0.001436424            0    3330.6221    1.6291948     93451184 
   50900    278.01772 -0.00087999024            0    3314.0425    1.6067414     94285459 
   51000    286.71202 -0.00031437255            0    3417.6814    1.6425611     95113639 
   51100    284.43876 -0.00021581602            0    3390.5836    1.6148937     95976147 
   51200    280.13124 -0.00023500202            0    3339.2369    1.5763025     96836807 
   51300    281.02824 -0.00043087242            0    3349.9291    1.5677623     97676065 
   51400     286.1037 -0.001362578            0     3410.429    1.5824144     98519293 
   51500    285.23558 -0.0025849377            0    3400.0795    1.5638415     99386760 
   51600    278.75073 -0.0043536198            0    3322.7766    1.5151156 1.0025063e+08 
   51700    272.88947 -0.0032927395            0      3252.91    1.4711923 1.0107286e+08 
   51800     282.2473 -0.0060738271            0     3364.455    1.5097871 1.0186624e+08 
   51900    284.83889 -0.020003514            0    3395.3335    1.5112888 1.0269818e+08 
   52000     283.5027  -0.51188135            0    3378.9139    1.4911886 1.0355731e+08 
   52100    281.17953 -0.032119842            0    3351.7008    1.4673619 1.0441253e+08 
   52200    283.11486 -0.0082603778            0    3374.7943    1.4656988 1.0525271e+08 
   52300    287.93207 -0.0054727871            0    3432.2195    1.4787037 1.0610244e+08 
   52400    284.54312 -0.033290886            0    3391.7945    1.4493511 1.0697452e+08 
   52500    275.11477 -0.016151936            0    3279.4233    1.3903426 1.0782122e+08 
   52600    278.60218 -0.001612181            0    3321.0086    1.3977576 1.0861019e+08 
   52700    283.28635 -0.00072342097            0    3376.8461    1.4109252 1.094057e+08 
   52800    283.08909  -0.00067661            0    3374.4948    1.3994065 1.1022942e+08 
   52900    283.23597 -0.013041359            0    3376.2332     1.389647 1.1105995e+08 
   53000    284.25119 -0.00077955704            0    3388.3471    1.3842828 1.1189115e+08 
   53100    285.20496 -0.00014879846            0     3399.717    1.3786424 1.1272596e+08 
   53200    283.93715 -0.0004134907            0    3384.6041    1.3624013 1.1356266e+08 
   53300    280.12559 -0.00084681548            0    3339.1689    1.3344592 1.1438411e+08 
   53400    280.59444 -0.055858577            0    3344.7027    1.3274582 1.1517423e+08 
   53500    286.84938 -0.014189669            0    3419.3048    1.3478704 1.1596286e+08 
   53600    285.69149 -0.00033288752            0    3405.5163    1.3330064 1.1678404e+08 
   53700    279.22983 -8.5393195e-05            0    3328.4919     1.293819 1.1759986e+08 
   53800    276.15247 -0.00016881161            0    3291.8089    1.2712894 1.1836492e+08 
   53900    285.72565 -0.0010623053            0    3405.9228    1.3072014 1.191036e+08 
   54000    286.56648 -0.0071371581            0    3415.9396     1.302463 1.1988803e+08 
   54100    280.81667 -0.0068313448            0    3347.4007    1.2678662 1.2068835e+08 
   54200    278.38459 -0.015418307            0    3318.4011    1.2490058 1.214488e+08 
   54300    285.89213 -0.0071988537            0    3407.9012    1.2749927 1.2218287e+08 
   54400    286.61323 -0.0011088815            0     3416.503    1.2702123 1.229527e+08 
   54500    282.21309 -0.00023168489            0     3364.053    1.2428106 1.2373447e+08 
   54600    280.57764 -9.3452594e-05            0    3344.5581    1.2281755 1.2448331e+08 
   54700    285.29585 -7.5967362e-05            0    3400.8004    1.2416105  1.25207e+08 
   54800    292.20562 -7.1410735e-05            0    3483.1668     1.264058 1.2596216e+08 
   54900    285.96946 -8.4799198e-05            0    3408.8301     1.229291 1.2676037e+08 
   55000    282.03528 -0.00021642664            0    3361.9335    1.2051118 1.2752478e+08 
   55100    281.19486 -0.00046437035            0    3351.9152    1.1948516 1.2823654e+08 
   55200    284.92203 -0.0033709348            0    3396.3412    1.2042585 1.2892098e+08 
   55300    287.91694 -0.00075698918            0    3432.0438    1.2103346 1.2962239e+08 
   55400    281.20857 -0.0020169983            0     3352.077    1.1756033 1.3034234e+08 
   55500    275.05745 -0.031006398            0    3278.7251    1.1440424 1.3100492e+08 
   55600    281.05457 -0.055563092            0    3350.1878    1.1636531 1.3160256e+08 
   55700    283.80015 -0.0086145789            0    3382.9628    1.1696262 1.3221501e+08 
   55800    283.71774 -0.0076363713            0    3381.9814    1.1636479 1.328558e+08 
   55900    282.54276  -0.00620366            0    3367.9768    1.1532111 1.3350315e+08 
   56000    282.40103 -0.001417618            0    3366.2921    1.1471803 1.3413824e+08 
   56100    285.40243 -0.00028287801            0    3402.0708    1.1539777 1.3476549e+08 
   56200    286.21935 -0.00012817839            0    3411.8088    1.1517834 1.3540874e+08 
   56300    280.54062 -0.00012567674            0    3344.1169     1.123583 1.3605331e+08 
   56400    276.62998 -0.00025928772            0    3297.5009    1.1031586 1.366406e+08 
   56500    285.26474 -0.00067240131            0     3400.429    1.1331563 1.3717551e+08 
   56600    286.48572 -0.0001507118            0     3414.984    1.1332627 1.3774977e+08 
   56700    281.90999 -0.00010066051            0    3360.4401    1.1103314 1.3834911e+08 
   56800    279.67052 -0.00024083916            0    3333.7449    1.0970408 1.3891283e+08 
   56900    286.60818 -0.00010003364            0    3416.4437    1.1199959 1.3944106e+08 
   57000    289.64408 -3.7519168e-05            0    3452.6325    1.1272497 1.400113e+08 
   57100    283.39194 -4.6299795e-05            0    3378.1053    1.0981775 1.406156e+08 
   57200    281.00972 -6.0622952e-05            0    3349.7087    1.0846337 1.4117468e+08 
   57300    282.63946 -7.8669735e-05            0    3369.1356    1.0870166 1.4168216e+08 
   57400    286.25521 -0.00019452747            0    3412.2362    1.0970901 1.4217708e+08 
   57500    290.25289 -0.00028145073            0    3459.8895    1.1083386 1.4269954e+08 
   57600    285.12656 -7.8443736e-05            0    3398.7825    1.0844935 1.4326142e+08 
   57700    277.99329 -4.4785207e-05            0    3313.7521    1.0535435 1.4378063e+08 
   57800    281.24346 -6.0249973e-05            0     3352.495    1.0626938 1.4420915e+08 
   57900    286.29559 -0.00011928744            0    3412.7176    1.0787098 1.4462006e+08 
   58000    284.61257 -0.0004070861            0    3392.6553    1.0690942 1.4506295e+08 
   58100    281.65049  -0.02243733            0    3357.3245    1.0547556 1.4550187e+08 
   58200    281.68182 -0.0037315095            0    3357.7166    1.0519743 1.4590521e+08 
   58300    282.57555 -0.00021440394            0    3368.3736    1.0525833 1.4628391e+08 
   58400    283.50751 -0.00014358232            0    3379.4829    1.0533813 1.466552e+08 
   58500    284.16155 -0.00019842152            0    3387.2791    1.0531289 1.4702875e+08 
   58600    284.08044 -0.00015318749            0    3386.3124    1.0501315 1.4740633e+08 
   58700    282.10589 -0.00023326643            0    3362.7751    1.0402092 1.4777805e+08 
   58800    281.03929 -0.00012622983            0    3350.0611    1.0338793 1.4812068e+08 
   58900    284.54086 -7.9808972e-05            0    3391.8007    1.0445415 1.4843539e+08 
   59000    287.99769 -0.0013906747            0    3433.0058    1.0548553 1.4876958e+08 
   59100    282.11457  -0.01907301            0    3362.8598    1.0307231 1.491402e+08 
   59200    276.26833 -0.00040893797            0    3293.1897     1.007222 1.4945976e+08 
   59300    281.31276 -0.00024797771            0    3353.3208    1.0240369 1.4968982e+08 
   59400    284.08132 -0.00019818913            0    3386.3228    1.0325866 1.4991141e+08 
   59500    283.63784 -0.0049583007            0    3381.0316    1.0292717 1.501588e+08 
   59600     281.8897 -0.0057266259            0    3360.1926    1.0211892 1.5041438e+08 
   59700    280.47092 -0.0034529535            0    3343.2827    1.0144607 1.5065024e+08 
   59800    283.96272 -0.00026590997            0     3384.909    1.0256717 1.5085906e+08 
   59900    287.73711 -0.00041948284            0    3429.9006    1.0377213 1.5108924e+08 
   60000    283.05884  -0.11312322            0    3374.0217    1.0188806 1.5136645e+08 
   60100    277.12108 -0.011465119            0    3303.3437   0.99597099 1.5161317e+08 
   60200    281.71742 -0.00016130715            0    3358.1446    1.0114166 1.5177566e+08 
   60300    285.52302 -6.8025035e-05            0    3403.5084    1.0240433 1.5192923e+08 
   60400    283.71377 -0.00017166637            0    3381.9416    1.0162903 1.5211818e+08 
   60500    281.19712 -0.00012245867            0    3351.9425      1.00602 1.5230802e+08 
   60600    281.79843 -3.6573047e-05            0    3359.1103    1.0071245 1.5246632e+08 
   60700    288.29368 -4.1913234e-05            0    3436.5354    1.0293334 1.5261514e+08 
   60800    288.13594 -0.00030591999            0    3434.6549    1.0273432 1.5282709e+08 
   60900      278.887 -0.004053829            0    3324.4013   0.99279697 1.5306813e+08 
   61000    279.80766 -0.00051764202            0    3335.3793   0.99503398 1.5322867e+08 
   61100    284.15786 -5.6507173e-05            0    3387.2353    1.0098208 1.5333238e+08 
   61200    285.31798 -0.0002443595            0     3401.064    1.0131969 1.5344535e+08 
   61300    281.26786 -0.00047722992            0    3352.7854   0.99796128 1.5357651e+08 
   61400    272.81174 -0.0002793183            0    3251.9865   0.96745662 1.5365617e+08 
   61500    279.82893  -0.00442475            0     3335.629   0.99264401 1.5360874e+08 
   61600    284.58352  -0.37736773            0     3391.932    1.0096801 1.5353827e+08 
   61700    284.08035 -0.0012488607            0    3386.3102    1.0083088 1.5352027e+08 
   61800    281.22203 -0.00012403941            0    3352.2394   0.99805413 1.5353725e+08 
   61900     280.1728 -8.4509838e-05            0    3339.7324   0.99427933 1.5354515e+08 
   62000     286.2632 -0.00011074282            0    3412.3315    1.0159311 1.5353938e+08 
   62100     289.1328 -0.00012562347            0    3446.5378    1.0257207 1.5359842e+08 
   62200    280.90363 -0.0001992985            0     3348.444   0.99562404 1.5373773e+08 
   62300    279.27256 -0.00082355316            0    3329.0005   0.98914469 1.5384617e+08 
   62400    282.85144 -0.0020180758            0    3371.6605    1.0014801 1.5389831e+08 
   62500    285.22871 -0.00049758065            0    3399.9997    1.0095693 1.5394851e+08 
   62600    283.32053 -0.033887926            0    3377.2203      1.00227 1.5402773e+08 
   62700    274.71233 -0.018112884            0    3274.6241   0.97141286 1.5409398e+08 
   62800     277.6992  -0.04836132            0    3310.1981   0.98224868 1.5404689e+08 
   62900    284.77671 -0.0021019896            0    3394.6102    1.0080386 1.5393772e+08 
   63000    284.54254 -0.00033425931            0    3391.8206    1.0076627 1.5386876e+08 
   63100    281.36762 -0.00040589281            0    3353.9746   0.99662228 1.538374e+08 
   63200    279.55307 -0.0012059606            0    3332.3439   0.99045603 1.5379675e+08 
   63300    285.65285 -0.0035022404            0    3405.0525    1.0125035 1.5373021e+08 
   63400    289.54297 -0.0009048036            0    3451.4264    1.0263469 1.5372237e+08 
   63500    282.24282 -0.0026977167            0    3364.4049   0.99986039 1.5381584e+08 
   63600    279.93667 -0.0023365062            0    3336.9154   0.99106337 1.5391325e+08 
   63700    282.71356 -0.00061861768            0    3370.0184    1.0005078 1.5397297e+08 
   63800    284.99456 -0.00016284107            0    3397.2089    1.0081888 1.5403279e+08 
   63900    283.46991 -7.4863474e-05            0    3379.0347    1.0022026 1.5412389e+08 
   64000    274.80147 -0.00013467186            0    3275.7046    0.9710147 1.5420972e+08 
   64100    278.22685 -0.00061405247            0    3316.5356   0.98328826 1.5418301e+08 
   64200    285.14587 -0.00074303715            0     3399.012    1.0083768 1.5408576e+08 
   64300    284.79613 -0.00018685978            0    3394.8436    1.0075811 1.5401838e+08 
   64400    281.05584 -9.3668658e-05            0    3350.2584   0.99458532 1.5398169e+08 
   64500    278.82024 -6.7121848e-05            0    3323.6096   0.98705502 1.5392228e+08 
   64600    285.73658 -0.00071334033            0    3406.0535    1.0122425 1.5381531e+08 
   64700    289.33828 -0.00067407301            0    3448.9867    1.0254033 1.5375509e+08 
   64800    282.32697 -0.00022923482            0    3365.4104    1.0002883 1.5379621e+08 
   64900     280.0231 -0.00020767878            0    3337.9478   0.99176346 1.5385239e+08 
   65000    282.80298 -0.0013423394            0    3371.0836    1.0014173 1.5388168e+08 
   65100     284.8576 -0.00087714293            0    3395.5756    1.0084435 1.5391979e+08 
   65200    283.46165 -0.00041986594            0     3378.936    1.0029903 1.5399832e+08 
   65300    273.95131 -0.0014895733            0    3265.5692   0.96876612 1.5408927e+08 
   65400    275.27614 -0.00079776955            0    3281.3623    0.9736146 1.5406349e+08 
   65500    283.55753 -0.0016215054            0    3380.0777    1.0038661 1.5391585e+08 
   65600    285.62304 -0.008110234            0    3404.6926    1.0122071 1.5375856e+08 
   65700    282.73317 -0.00086666205            0    3370.2519    1.0027953 1.5363235e+08 
   65800    278.39765 -0.00039761382            0    3318.5718    0.9882716 1.5349974e+08 
   65900    281.79526 -0.00017360508            0    3359.0724    1.0016386 1.5329963e+08 
   66000    290.03704 -0.00010118823            0    3457.3167    1.0323834 1.5308442e+08 
   66100    285.47262 -0.00028563501            0    3402.9074    1.0168971 1.5296987e+08 
   66200    281.12938 -0.00024234657            0    3351.1349    1.0017416 1.5292165e+08 
   66300    281.97798 -6.6408094e-05            0    3361.2506    1.0050281 1.528817e+08 
   66400    284.71554 -4.5366573e-05            0     3393.883    1.0149179 1.5286174e+08 
   66500     286.8978 -3.8107088e-05            0    3419.8962    1.0223615 1.529119e+08 
   66600     284.0211 -2.5691069e-05            0    3385.6051    1.0109916 1.5308111e+08 
   66700    278.36109 -3.4582679e-05            0    3318.1364   0.98912472 1.5334726e+08 
   66800    281.01789 -5.2172169e-05            0    3349.8061   0.99664637 1.5364252e+08 
   66900    287.20265 -7.3473692e-05            0    3423.5301    1.0161794 1.5400563e+08 
   67000    285.05865 -8.2916019e-05            0     3397.973    1.0051291 1.5453644e+08 
   67100     280.6453 -7.4563359e-05            0    3345.3647   0.98513282 1.5523209e+08 
   67200    280.67402 -5.7323538e-05            0     3345.707   0.98020497 1.5602847e+08 
   67300    281.83838 -3.3168403e-05            0    3359.5866   0.97885272 1.5689219e+08 
   67400    283.65402 -3.4427294e-05            0    3381.2295   0.97948943 1.5780027e+08 
   67500    285.10513 -7.6052029e-05            0     3398.527   0.97875299 1.5872687e+08 
   67600    284.45457 -0.00019240077            0    3390.7721   0.97097802 1.5963275e+08 
   67700    280.18922 -0.00023342333            0    3339.9279   0.95159571 1.6044176e+08 
   67800    279.36674 -0.00055045632            0    3330.1235    0.9452737 1.6104063e+08 
   67900    286.31406 -0.00032112896            0    3412.9375   0.96668025 1.6139061e+08 
   68000    287.22569 -0.00016928082            0    3423.8046    0.9686881 1.6156892e+08 
   68100    281.13381 -0.00078704909            0    3351.1872   0.94806576 1.6158196e+08 
   68200    279.77471 -0.005088636            0    3334.9821   0.94491081 1.6133709e+08 
   68300    282.45522 -0.0063636409            0    3366.9331   0.95712827 1.6080352e+08 
   68400     284.5344 -0.0061812892            0    3391.7177   0.96882751 1.6003114e+08 
   68500    283.98585 -0.0039037414            0    3385.1811   0.97268818 1.5908899e+08 
   68600    278.99142 -0.0048361764            0    3325.6452   0.96198793 1.580294e+08 
   68700    277.87771   -0.1214467            0    3312.2529   0.96510763 1.5687375e+08 
   68800    288.77263 -0.00051251245            0    3442.2441    1.0104318 1.5572825e+08 
   68900    289.51861 -0.000309914            0    3451.1366    1.0190496 1.5481021e+08 
   69000    283.67573 -0.00052955132            0    3381.4877    1.0027658 1.5414911e+08 
   69100    281.67159 -0.0018895759            0    3357.5965   0.99893987 1.5364609e+08 
   69200    282.73255  -0.97024995            0    3369.2751    1.0050239 1.5325216e+08 
   69300    286.37834 -0.0041445431            0    3413.6999      1.02013 1.5296836e+08 
   69400    288.86176 -0.023490253            0    3443.2836    1.0299083 1.5282739e+08 
   69500    280.98331 -0.0011741182            0    3349.3927    1.0018793 1.5282106e+08 
   69600    278.57826 -0.00019737352            0    3320.7249   0.99322926 1.5283267e+08 
   69700    284.00395 -0.00048035292            0    3385.4003    1.0126173 1.5282606e+08 
   69800    286.50701 -0.00074144977            0    3415.2371    1.0212457 1.5287037e+08 
   69900    283.85933 -0.00059261978            0    3383.6762    1.0110221 1.5298923e+08 
   70000    282.58248 -0.00061551358            0    3368.4559    1.0054944 1.5313833e+08 
   70100    282.76646 -0.00034793566            0    3370.6492    1.0051502 1.5329054e+08 
   70200    283.94371 -0.00017532231            0    3384.6826    1.0083192 1.5344499e+08 
   70300    286.09397 -0.00014605388            0    3410.3141    1.0148198 1.5361664e+08 
   70400    284.93039 -0.00019591135            0    3396.4439     1.009313 1.5382657e+08 
   70500    279.18122 -0.00024055877            0    3327.9123   0.98755141 1.5404406e+08 
   70600    279.59371 -0.00045228377            0    3332.8291   0.98806436 1.5419154e+08 
   70700     287.7108 -0.0043537209            0     3429.583    1.0161246 1.5428585e+08 
   70800    286.90703  -0.02454036            0    3419.9817    1.0123348 1.5442809e+08 
   70900    282.79757 -0.004257384            0    3371.0162   0.99668873 1.5460838e+08 
   71000    281.92566 -0.00035241007            0    3360.6266    0.9926182 1.547643e+08 
   71100    283.28494 -8.653837e-05            0    3376.8299   0.99666339 1.5487934e+08 
   71200     286.2806 -0.00010067606            0    3412.5389    1.0065832 1.5497468e+08 
   71300    289.41842 -7.8189364e-05            0    3449.9426    1.0168081 1.5509782e+08 
   71400     282.2933 -2.6842076e-05            0    3365.0093   0.99063995 1.5527562e+08 
   71500    278.38858 -1.3917798e-05            0     3318.464   0.97608867 1.5541062e+08 
   71600    283.30752 -1.6793101e-05            0    3377.0991   0.99312008 1.5544433e+08 
   71700    287.19328 -4.5862463e-05            0    3423.4184    1.0067375 1.5544493e+08 
   71800    284.21014 -0.00024409836            0    3387.8583    0.9961348 1.5546761e+08 
   71900    282.39101 -0.0028614306            0    3366.1713   0.98970374 1.5547591e+08 
   72000    282.87846 -0.074736413            0    3371.9099   0.99157976 1.5543982e+08 
   72100    283.88029  -0.09332472            0    3383.8333    0.9955519 1.5536557e+08 
   72200    283.93031 -0.0036515295            0    3384.5193   0.99642547 1.5526876e+08 
   72300    281.07446 -0.00084370974            0    3350.4796   0.98717145 1.551483e+08 
   72400    279.50827 -0.0044391439            0    3331.8066    0.9828316 1.5496455e+08 
   72500    285.15785 -0.00072098045            0    3399.1548    1.0044035 1.5470181e+08 
   72600    288.95365 -0.00011382909            0    3444.4024      1.01948 1.5444292e+08 
   72700    281.29036 -0.000123008            0     3353.054   0.99372201 1.5424406e+08 
   72800    278.81954 -8.3140159e-05            0    3323.6012   0.98646309 1.5401425e+08 
   72900    282.79721 -7.082202e-05            0     3371.016    1.0025117 1.5371073e+08 
   73000    285.69128 -4.1663084e-05            0    3405.5141    1.0148712 1.5339267e+08 
   73100    283.31021 -3.5020156e-05            0    3377.1312    1.0082643  1.53111e+08 
   73200    275.09145 -7.4762982e-05            0    3279.1613   0.98080328 1.5283179e+08 
   73300      279.171 -0.00013110998            0    3327.7906   0.99780294 1.5245583e+08 
   73400    285.35687 -7.0152057e-05            0    3401.5279    1.0227389 1.5203448e+08 
   73500    284.33074 -7.6474871e-05            0    3389.2961    1.0215193 1.5166862e+08 
   73600    281.03738 -0.00022434633            0    3350.0383    1.0117235 1.5136335e+08 
   73700    280.32324 -0.0017219444            0    3341.5241    1.0110132 1.510846e+08 
   73800     287.2078  -0.66567414            0    3422.9258    1.0370992 1.5083724e+08 
   73900    289.77717 -0.0032764497            0    3454.2158    1.0475921 1.5072639e+08 
   74000    281.14024 -0.0052244277            0    3351.2594    1.0158261 1.5080654e+08 
   74100    280.19535 -0.015667917            0    3339.9855    1.0111604 1.5099179e+08 
   74200    283.52201 -0.009695221            0    3379.6462    1.0213159 1.5126606e+08 
   74300    285.71372 -0.0030565556            0    3405.7786    1.0263654 1.5168634e+08 
   74400    282.45932 -0.0053517657            0     3366.983    1.0106065 1.5229663e+08 
   74500    274.55761 -0.0078130431            0    3272.7901   0.97754885 1.5304194e+08 
   74600    280.18656 -0.0034756795            0     3339.893   0.99268321 1.5379911e+08 
   74700    284.65465 -0.0016760105            0    3393.1556    1.0033288 1.545941e+08 
   74800    283.65577 -0.0011604657            0    3381.2492   0.99424395 1.5545933e+08 
   74900    281.30816 -0.0011155351            0    3353.2651   0.98050034 1.5633374e+08 
   75000    282.13694 -0.0013340028            0    3363.1442   0.97840322 1.5713036e+08 
   75100    288.02415 -0.00095789969            0    3433.3216   0.99442811 1.5782424e+08 
   75200    286.16948 -0.0017882912            0    3411.2127    0.9840625 1.5845958e+08 
   75300    278.02885 -0.00048634664            0    3314.1755   0.95292933 1.5898185e+08 
   75400    279.24941 -0.00012749545            0    3328.7252   0.95537552 1.5927098e+08 
   75500    282.93636 -0.00014734748            0    3372.6747   0.96759003 1.5933672e+08 
   75600    284.06393 -0.00015403157            0    3386.1155   0.97203026 1.5924096e+08 
   75700    283.40945 -0.00015481954            0     3378.314   0.97119344 1.5901097e+08 
   75800    280.17503 -0.00073852344            0    3339.7583   0.96233069 1.5864389e+08 
   75900    277.58041 -0.0032749627            0    3308.8273   0.95667468 1.5810362e+08 
   76000    284.89743 -0.00038255024            0    3396.0509   0.98635649 1.5738852e+08 
   76100    289.16417 -9.2663977e-05            0    3446.9118    1.0059318 1.5663705e+08 
   76200    283.53547 -0.0001452867            0    3379.8162   0.99071751 1.5594665e+08 
   76300    281.66115 -0.00018838328            0    3357.4738   0.98841527 1.5527659e+08 
   76400    283.27445 -0.00010606687            0    3376.7048   0.99828636 1.5462182e+08 
   76500    284.53638 -8.30354e-05            0    3391.7474    1.0065972 1.5402833e+08 
   76600     281.2562 -0.00014100866            0    3352.6467   0.99825172 1.5352551e+08 
   76700    276.41915 -0.00026543999            0    3294.9877   0.98400529 1.5306967e+08 
   76800    283.00533 -0.00035099364            0    3373.4966    1.0104441 1.5261624e+08 
   76900    287.69669 -0.00066094474            0    3429.4185    1.0296035 1.5225906e+08 
   77000    284.25671 -0.0020232326            0    3388.4117    1.0186311 1.520588e+08 
   77100    281.43346 -0.0025820391            0    3354.7573    1.0091621 1.5196107e+08 
   77200    282.19983 -0.00053383079            0    3363.8946    1.0121994 1.5191792e+08 
   77300    283.68961 -0.00014518312            0    3381.6536    1.0174423 1.5193301e+08 
   77400    283.63442 -0.00015176815            0    3380.9957    1.0166572 1.5202076e+08 
   77500    283.05958 -0.00036753047            0    3374.1432    1.0135689 1.5217489e+08 
   77600    282.76097 -0.00062609598            0    3370.5835    1.0111376 1.5237985e+08 
   77700    283.39826 -0.00056775816            0    3378.1802    1.0117919 1.5262453e+08 
   77800    286.25346 -0.00056631294            0    3412.2149    1.0200512 1.5291395e+08 
   77900    286.18162 -0.021771182            0    3411.3374    1.0173607 1.5327702e+08 
   78000    279.57989 -0.0076708256            0    3332.6571   0.99121293 1.5369316e+08 
   78100     278.4146 -0.00046636098            0    3318.7738   0.98472281 1.540623e+08 
   78200    286.66595 -0.00022811126            0    3417.1323    1.0119179 1.5436516e+08 
   78300      286.733 -6.7870737e-05            0    3417.9317    1.0099807 1.5469745e+08 
   78400    282.69539 -3.4875046e-05            0    3369.8024   0.99342151 1.5506141e+08 
   78500    280.99196 -4.1485672e-05            0     3349.497    0.9853506 1.5538949e+08 
   78600    284.23994 -0.00010962114            0    3388.2137   0.99507585 1.5564939e+08 
   78700    292.57397 -0.00011656206            0    3487.5575    1.0226436 1.5589418e+08 
   78800    286.00939 -5.2858642e-05            0    3409.3061   0.99761889 1.5621911e+08 
   78900    280.80152 -0.00014126268            0    3347.2268   0.97746002 1.565377e+08 
   79000    282.40326 -0.0049073163            0    3366.3151   0.98165371 1.567574e+08 
   79100    285.89467 -0.00018293387            0    3407.9385   0.99292666 1.5689438e+08 
   79200    285.44969 -0.00095053738            0    3402.6334   0.99074708 1.5699469e+08 
   79300    277.56204 -0.096725711            0    3308.5148   0.96300889 1.5704033e+08 
   79400    278.13777   -0.4658074            0    3315.0086   0.96546124 1.569238e+08 
   79500    285.91424  -0.35352229            0    3407.8184   0.99709969 1.5664914e+08 
   79600    285.60764 -0.0017499343            0    3404.5154   0.99555946 1.5632214e+08 
   79700    282.34461 -0.00046746813            0    3365.6205   0.98650415 1.5595488e+08 
   79800    280.70006 -0.00038512417            0    3346.0171   0.98357945 1.5550755e+08 
   79900    284.50952 -0.00022851262            0     3391.427    1.0004018 1.5496757e+08 
   80000     291.4961 -0.00018554118            0    3474.7089    1.0286332 1.5441543e+08 
   80100    284.57361 -0.00013533247            0    3392.1911    1.0071991 1.5395642e+08 
   80200    280.72549 -8.6065546e-05            0    3346.3206    0.9963663 1.5352579e+08 
   80300    282.82425 -0.00015746498            0    3371.3382    1.0067881 1.5307245e+08 
   80400    286.26196 -0.000862919            0    3412.3159    1.0219197 1.5263885e+08 
   80500    284.92995 -0.0058232293            0    3396.4331    1.0195089 1.522872e+08 
   80600    277.38798 -0.0055488679            0    3306.5311   0.99439109 1.5200112e+08 
   80700    280.17951 -0.0017985479            0    3339.8106    1.0064259 1.516954e+08 
   80800    286.75652 -0.0010071399            0    3418.2111    1.0319769 1.5141242e+08 
   80900    285.55572 -0.00056533361            0    3403.8977    1.0287646 1.5124924e+08 
   81000    282.62065 -0.00046909004            0     3368.911    1.0184742 1.5120712e+08 
   81100    282.04204 -0.00050839258            0    3362.0138    1.0160882 1.5125189e+08 
   81200    283.21159 -0.00047231223            0    3375.9552    1.0194485 1.5137848e+08 
   81300    285.76214 -0.00028959569            0    3406.3585    1.0270606 1.5160973e+08 
   81400    290.77928 -0.00024037687            0    3466.1642    1.0424113 1.5199972e+08 
   81500    283.84472 -0.00020509023            0    3383.5025    1.0134763 1.5261095e+08 
   81600    278.22027 -0.00016825649            0    3316.4576   0.98861448 1.5334877e+08 
   81700    281.90026 -0.00050189702            0    3360.3238   0.99680556 1.5410027e+08 
   81800    285.94595  -0.02362968            0    3408.5263    1.0060369 1.5487439e+08 
   81900    283.97918 -0.0015828498            0    3385.1039   0.99391926 1.5568735e+08 
   82000    281.82295 -0.0031157911            0    3359.3995   0.98142926 1.564713e+08 
   82100    282.01981 -0.00076174889            0    3361.7486   0.97785586 1.5715313e+08 
   82200     282.9042 -0.00018711869            0    3372.2913   0.97748789 1.5770538e+08 
   82300     283.2006 -0.00043910043            0    3375.8242   0.97591262 1.581254e+08 
   82400    283.14182 -0.0014196482            0    3375.1225   0.97394605 1.5841165e+08 
   82500    283.16417  -0.43284238            0    3374.9576   0.97277694 1.5856233e+08 
   82600    283.44177  -0.00964235            0    3378.6898   0.97393965 1.5857936e+08 
   82700    284.24884 -0.0013519742            0    3388.3186   0.97737641 1.5847286e+08 
   82800    283.33077 -0.033073999            0    3377.3432   0.97551655 1.5825776e+08 
   82900    281.50031 -0.00065415337            0    3355.5561   0.97127107 1.5792712e+08 
   83000    281.98359 -0.00037049616            0    3361.3172   0.97578626 1.5746628e+08 
   83100    285.88659 -0.00024772937            0     3407.842   0.99284912 1.5690218e+08 
   83200    287.29777 -0.00046946677            0    3424.6635    1.0015058 1.5631375e+08 
   83300    279.79601 -0.0015597834            0    3335.2394   0.97898128 1.5573459e+08 
   83400    279.12207 -0.00037887757            0    3327.2071   0.98066001 1.5509369e+08 
   83500    284.99288 -4.8129084e-05            0    3397.1891    1.0057367 1.5440745e+08 
   83600    286.66404 -4.1031177e-05            0    3417.1097    1.0157244 1.5378568e+08 
   83700    283.93098 -0.00035582194            0    3384.5306    1.0094002 1.5327377e+08 
   83800    283.28857 -0.0012151821            0     3376.872    1.0099201 1.5284813e+08 
   83900    282.83275 -0.034450504            0    3371.4053    1.0105664 1.5250012e+08 
   84000    282.43788 -0.024597569            0    3366.7082    1.0109861 1.5222531e+08 
   84100    282.82151 -0.0011416596            0    3371.3046    1.0137515 1.520194e+08 
   84200    284.46826 -0.00057058924            0    3390.9349    1.0205285 1.5188925e+08 
   84300    284.63961 -0.00053068261            0    3392.9774    1.0213744 1.5185487e+08 
   84400    280.88384 -0.0005439741            0    3348.2077    1.0075263 1.5191082e+08 
   84500    278.68905 -0.00038130881            0    3322.0454   0.99906104 1.5200095e+08 
   84600    285.65306 -0.00017063225            0    3405.0584    1.0233624 1.5209954e+08 
   84700    288.57042 -0.00022929428            0     3439.834    1.0324902 1.5229454e+08 
   84800    282.68406 -0.00060654988            0    3369.6667    1.0092572 1.5262222e+08 
   84900    280.67903 -0.0015874399            0    3345.7652   0.99962793 1.5299933e+08 
   85000    282.37039 -0.0013997357            0    3365.9269    1.0031519 1.5338062e+08 
   85100    284.26898 -0.0003614626            0    3388.5596    1.0072856 1.5377837e+08 
   85200    284.38464 -0.00014735542            0    3389.9386     1.004879 1.5420941e+08 
   85300    280.38863 -0.00033978544            0    3342.3048   0.98787695 1.5465927e+08 
   85400    278.28138   -0.0012962            0    3317.1849   0.97793402 1.5505745e+08 
   85500     284.8577 -0.003391689            0    3395.5743   0.99903706 1.5536873e+08 
   85600    287.21095 -0.00050192864            0    3423.6286     1.005339 1.5567069e+08 
   85700    281.89109 -8.1038739e-05            0    3360.2149   0.98468947 1.5599137e+08 
   85800    277.83131 -5.9369979e-05            0    3311.8213   0.96891733 1.5624747e+08 
   85900    287.68609 -8.0999485e-05            0    3429.2928    1.0024353 1.5637993e+08 
   86000    289.61781 -0.00015393354            0    3452.3192    1.0083467 1.5650704e+08 
   86100    281.81151 -0.0019693631            0    3359.2643   0.98016397 1.5666709e+08 
   86200    279.67943 -0.0034238913            0    3333.8479   0.97223583 1.5674949e+08 
   86300    284.33776 -0.0033086374            0    3389.3765   0.98866921 1.5671148e+08 
   86400    288.72795 -0.0025966804            0    3441.7095    1.0045495 1.5661561e+08 
   86500    280.39233 -0.00069474095            0    3342.3486   0.97615679 1.5651819e+08 
   86600    276.88973 -0.00012034156            0    3300.5973    0.9652484 1.5630982e+08 
   86700    283.74744 -0.00026251663            0    3382.3428   0.99159655 1.5592487e+08 
   86800    286.79665 -0.0059617497            0    3418.6845    1.0052773 1.5545492e+08 
   86900    282.96117 -0.0024349217            0    3372.9681    0.9950167 1.5495803e+08 
   87000    278.59657 -0.0084041977            0     3320.935   0.98324486 1.5439362e+08 
   87100    284.13903 -0.012045383            0    3386.9989     1.007212 1.5371772e+08 
   87200    292.73842 -0.0015825245            0    3489.5163     1.042263 1.5304544e+08 
   87300    284.92848 -0.0021073719            0    3396.4192    1.0179893 1.5251425e+08 
   87400    280.74698 -0.00016354471            0    3346.5767    1.0060902 1.5205359e+08 
   87500    281.95778 -5.9626379e-05            0    3361.0098    1.0133781 1.5161114e+08 
   87600    286.74102 -3.0097812e-05            0    3418.0273    1.0332425 1.512189e+08 
   87700    287.87217 -2.2448489e-05            0    3431.5109    1.0391125 1.5095784e+08 
   87800    278.63572 -4.1138855e-05            0      3321.41    1.0065348 1.5084348e+08 
   87900      278.923 -6.233039e-05            0    3324.8344    1.0080529 1.5077159e+08 
   88000    284.94971 -0.00013263955            0    3396.6743    1.0300418 1.5074117e+08 
   88100    285.56371 -0.00021362886            0    3403.9933       1.0316 1.5083779e+08 
   88200    282.69508 -0.00028109244            0    3369.7984    1.0195639 1.510853e+08 
   88300    281.67986 -0.000201902            0    3357.6968    1.0134396 1.5145248e+08 
   88400    282.29817 -0.00010102812            0    3365.0673    1.0125198 1.5192283e+08 
   88500    282.97741 -9.0539877e-05            0    3373.1641    1.0111208 1.5249909e+08 
   88600    283.57322 -0.00014757023            0    3380.2662     1.008748 1.5317963e+08 
   88700    285.42861 -0.00038310112            0    3402.3826    1.0102518 1.5395233e+08 
   88800     288.2879 -0.00075277466            0    3436.4658    1.0146952 1.548136e+08 
   88900    282.73807 -0.0036339611            0    3370.3075   0.98920937 1.5574468e+08 
   89000    277.37805 -0.0079970828            0    3306.4103   0.96510297 1.5660797e+08 
[...]
  190700    279.59577 -0.00010041995            0     3332.854    1.0037749 1.5177938e+08 
  190800    277.52534 -3.7250866e-05            0     3308.174   0.99461833 1.520424e+08 
  190900    285.79841 -4.3422294e-05            0    3406.7911    1.0225665 1.522954e+08 
  191000    286.63786 -6.7957137e-05            0    3416.7976    1.0232976 1.526336e+08 
  191100    282.28582 -7.627091e-05            0    3364.9201    1.0048956 1.5306879e+08 
  191200    280.57284 -0.00014244807            0    3344.5009    0.9958076 1.5352839e+08 
  191300    284.85336 -9.965622e-05            0    3395.5258    1.0080765 1.5397364e+08 
  191400    293.83276 -6.8299018e-05            0    3502.5626     1.036537 1.5446637e+08 
  191500    287.26838 -0.00019110035            0    3424.3134    1.0092793 1.5509399e+08 
  191600     282.1261 -0.00037509232            0    3363.0159   0.98700507 1.5575511e+08 
  191700    280.57964 -0.00016860565            0     3344.582   0.97794137 1.5633702e+08 
  191800    284.57459 -0.00026563309            0    3392.2027   0.98894219 1.5679914e+08 
  191900    288.67701 -0.0033845625            0    3441.1015    1.0007051 1.5718944e+08 
  192000    281.53989 -0.0022331666            0    3356.0263    0.9737294 1.5755034e+08 
  192100    276.29805 -0.020571905            0    3293.5239   0.95422065 1.5777547e+08 
  192200    281.96677 -0.0030877993            0    3361.1139   0.97371658 1.5779118e+08 
  192300    285.42447 -0.00092108896            0    3402.3328    0.9863644 1.5767833e+08 
  192400    284.06997 -0.0069639852            0    3386.1808   0.98280515 1.5749754e+08 
  192500    279.31203 -0.028558926            0    3329.4433   0.96794572 1.5723387e+08 
  192600    274.23242 -0.010940493            0    3268.9106   0.95286873 1.5681945e+08 
  192700    282.28858 -0.0014977391            0    3364.9516   0.98470996 1.5620788e+08 
  192800    288.02789 -0.00064184099            0    3433.3665    1.0090997 1.5553165e+08 
  192900    283.83697 -0.0011466037            0    3383.4092   0.99840918 1.5490966e+08 
  193000    279.86564 -0.00088422366            0    3336.0702   0.98825697 1.5431137e+08 
  193100    282.32022 -0.00036867541            0    3365.3299    1.0008611 1.537045e+08 
  193200     289.4698 -0.0073492971            0    3450.5478    1.0299211 1.5314934e+08 
  193300    294.04574 -0.00042889278            0     3505.101    1.0488305 1.5276645e+08 
  193400    282.45575 -0.00056699759            0    3366.9452    1.0086349 1.5259305e+08 
  193500    280.18369 -0.0027318474            0    3339.8595    1.0012242 1.5248566e+08 
  193600    283.63603 -0.017712273            0    3380.9974    1.0141295 1.5239817e+08 
  193700    287.26369   -0.2155785            0    3424.0421    1.0270654 1.5237865e+08 
  193800    282.97103 -0.067256933            0    3373.0209    1.0112259 1.5247086e+08 
  193900    276.28818 -0.0088946421            0    3293.4178   0.98651701 1.5260641e+08 
  194000    281.04906 -0.0014973269            0    3350.1762    1.0029225 1.5269779e+08 
  194100    284.40793 -0.00037969958            0    3390.2159    1.0142368 1.5279908e+08 
  194200    283.54159 -0.00011982664            0    3379.8892    1.0100747 1.5296138e+08 
  194300    281.70902 -0.0001029421            0    3358.0445    1.0021698 1.5317151e+08 
  194400    281.71048 -0.00057081949            0    3358.0614    1.0006865 1.5339927e+08 
  194500    286.85605 -0.0030087411            0    3419.3955    1.0173253 1.5364612e+08 
  194600    287.72011 -0.00083553546            0    3429.6975    1.0182028 1.5397641e+08 
  194700     279.3688 -0.00043594085            0    3330.1481   0.98599624 1.5439066e+08 
  194800    278.35745 -0.00021475581            0    3318.0928   0.98001599 1.5477049e+08 
  194900    282.93757 -0.00028520536            0    3372.6889   0.99414726 1.5508091e+08 
  195000    283.93871 -7.2676866e-05            0     3384.623   0.99579446 1.5537224e+08 
  195100    283.07768 -6.3599705e-05            0    3374.3593    0.9909577 1.5565714e+08 
  195200    281.97793 -0.00019688433            0    3361.2499   0.98547141 1.559156e+08 
  195300    282.71767 -0.0018184566            0    3370.0661   0.98673977 1.5612346e+08 
  195400    286.06516 -0.014392026            0    3409.9566   0.99736781 1.5628695e+08 
  195500    285.35422  -0.34426813            0    3401.1521    0.9936237 1.5644543e+08 
  195600    279.09144 -0.0047545377            0    3326.8376   0.97124162 1.5657987e+08 
  195700     278.8513 -0.00046860426            0    3323.9793   0.97031193 1.5659564e+08 
  195800    288.44191 -0.00030314955            0    3438.3021    1.0044038 1.5648346e+08 
  195900    287.55274 -0.00089522557            0    3427.7024    1.0021063 1.5635866e+08 
  196000      282.852 -0.00073776202            0    3371.6684   0.98656503 1.5622546e+08 
  196100     281.2237 -0.00022730054            0    3352.2592   0.98222429 1.5601261e+08 
  196200    283.59771 -0.00019894669            0     3380.558   0.99259649 1.5568561e+08 
  196300    290.79703 -0.00034940152            0    3466.3756    1.0204488 1.5528059e+08 
  196400    289.10088 -0.0004919273            0     3446.157    1.0169674 1.5490333e+08 
  196500    280.74051 -0.00053449677            0    3346.4992   0.98986478 1.5454237e+08 
  196600     281.5504 -0.0006211779            0    3356.1532   0.99563503 1.5408995e+08 
  196700    285.74818 -0.0023675917            0      3406.19     1.014013 1.5355275e+08 
  196800    286.63942 -0.0038938508            0    3416.8124    1.0208355 1.5300205e+08 
  196900    278.36744 -0.00020465034            0    3318.2119    0.9948954 1.5246126e+08 
  197000    278.88191 -0.00017075694            0    3324.3445    1.0007714 1.5184621e+08 
  197100    285.18532 -0.00029578889            0    3399.4827    1.0279424 1.511739e+08 
  197200    285.94406 -0.00063327791            0    3408.5268    1.0349009 1.5055689e+08 
  197300    283.68062 -0.00081230393            0    3381.5457    1.0302147 1.5004453e+08 
  197400    282.54315 -0.00046849633            0    3367.9871    1.0289141 1.4963185e+08 
  197500    282.81802 -0.0002838679            0    3371.2638    1.0320662 1.4931999e+08 
  197600    283.91077 -0.00019760345            0    3384.2898    1.0373861 1.4912825e+08 
  197700    286.32237 -0.00016843561            0    3413.0368    1.0464565 1.490914e+08 
  197800    284.09575 -0.00018004916            0    3386.4948    1.0371778 1.4925539e+08 
  197900     279.0997  -0.00028144            0    3326.9405    1.0165521 1.496057e+08 
  198000    280.72013 -0.0012354063            0    3346.2556    1.0191848 1.5008549e+08 
  198100    287.45924 -0.0094534706            0    3426.5793    1.0392503 1.5072007e+08 
  198200     285.4231 -0.0024456363            0     3402.315    1.0260016 1.5158587e+08 
  198300    281.05244 -0.0020979552            0    3350.2159    1.0034055 1.5262604e+08 
  198400    280.80219 -0.0079609511            0     3347.227   0.99547849 1.5370361e+08 
  198500    282.31384 -0.029036849            0    3365.2252   0.99423908 1.5472081e+08 
  198600     283.9728 -0.0015607172            0    3385.0279   0.99428132 1.5562717e+08 
  198700    284.65732 -0.00020503291            0    3393.1889   0.99174646 1.5640124e+08 
  198800    284.15949 -7.1806734e-05            0    3387.2547   0.98603868 1.5703148e+08 
  198900    281.60943 -0.00016546756            0    3356.8573   0.97426237 1.5750334e+08 
  199000    281.10435 -0.00064205074            0    3350.8362   0.97073141 1.5779266e+08 
  199100     285.3617 -0.00073363187            0    3401.5847   0.98465879 1.5791675e+08 
  199200    287.77852 -0.00024213505            0    3430.3944    0.9927649 1.5795393e+08 
  199300    280.23463 -8.3896422e-05            0    3340.4694   0.96682681 1.5793982e+08 
  199400    277.42561 -4.2418594e-05            0    3306.9852   0.95806915 1.5778591e+08 
  199500    282.87954 -4.5190635e-05            0    3371.9975   0.97884628 1.5747281e+08 
  199600    284.99818 -8.1899182e-05            0    3397.2522     0.988546 1.570955e+08 
  199700    283.66728 -0.00022827746            0    3381.3873   0.98637843 1.5670546e+08 
  199800    281.28032 -0.00026763882            0    3352.9342    0.9806356 1.5629682e+08 
  199900    278.49257 -0.00041600708            0    3319.7033   0.97371971 1.5584686e+08 
  200000    279.98852 -0.00040730773            0    3337.5354     0.982167 1.5533642e+08 
Loop time of 278.737 on 4 procs for 200000 steps with 4000 atoms

Performance: 61.994 ns/day, 0.387 hours/ns, 717.522 timesteps/s
99.9% CPU use with 4 MPI tasks x no OpenMP threads

MPI task timing breakdown:
Section |  min time  |  avg time  |  max time  |%varavg| %total
---------------------------------------------------------------
Pair    | 6.6328     | 6.841      | 7.0752     |   6.6 |  2.45
Neigh   | 239.37     | 239.76     | 240.15     |   2.5 | 86.02
Comm    | 14.828     | 15.427     | 15.827     |   9.6 |  5.53
Output  | 0.05157    | 0.061412   | 0.089122   |   6.5 |  0.02
Modify  | 13.665     | 13.756     | 13.803     |   1.5 |  4.94
Other   |            | 2.888      |            |       |  1.04

Nlocal:    1000 ave 1030 max 973 min
Histogram: 1 0 1 0 0 0 1 0 0 1
Nghost:    107.5 ave 112 max 100 min
Histogram: 1 0 0 0 0 0 0 2 0 1
Neighs:    11.75 ave 15 max 8 min
Histogram: 1 1 0 0 0 0 0 0 0 2

Total # of neighbors = 47
Ave neighs/atom = 0.01175
Neighbor list builds = 200000
Dangerous builds not checked
WARNING: One or more atoms are time integrated more than once (../modify.cpp:266)
Setting up Verlet run ...
  Unit style  : real
  Current step: 0
  Time step   : 1
Memory usage per processor = 11.225 Mbytes
Step Temp E_pair E_mol TotEng Press Volume 
       0    279.98852 -0.00040730773            0    3337.5354     0.982167 1.5533642e+08 
     100    287.64526 -0.0002724484            0    3428.8058    1.0124876 1.5480534e+08 
     200    279.36925 -0.009630708            0    3330.1443   0.98595011 1.5439686e+08 
     300    283.53266 -7.1460672e-05            0    3379.7828    1.0034685 1.5396353e+08 
     400    286.65262 -1.1567071e-05            0    3416.9736    1.0168759 1.536054e+08 
     500     280.0852 -1.989731e-05            0    3338.6883   0.99483905 1.5341079e+08 
     600    283.92046 -1.3911653e-05            0    3384.4055    1.0096109 1.5323615e+08 
     700    287.80653 -2.0207664e-05            0    3430.7284    1.0238332 1.5317574e+08 
     800     287.8558 -7.8686736e-05            0    3431.3157    1.0228567 1.5334821e+08 
     900    284.15027 -0.00041725594            0    3387.1445     1.007066 1.5374767e+08 
    1000    281.11522 -0.0017955508            0    3350.9646   0.99305427 1.5425145e+08 
    1100    286.16353 -0.00049260716            0     3411.143    1.0075126 1.5476835e+08 
    1200     281.5925 -0.00014693454            0    3356.6555   0.98750377 1.5538204e+08 
    1300    283.41086 -3.789996e-05            0    3378.3309   0.99007409 1.5597943e+08 
    1400    284.67499 -2.8056677e-05            0    3393.3997   0.99082958 1.5655571e+08 
    1500    280.48127 -0.00016370325            0    3343.4093   0.97275227 1.5711589e+08 
    1600    284.24051 -0.045841277            0    3388.1748   0.98317279 1.5752782e+08 
    1700    288.10313 -0.00072114717            0    3434.2633   0.99443527 1.5786641e+08 
    1800    274.90498 -0.080162483            0    3276.8585   0.94695142 1.581766e+08 
    1900    282.30487 -0.00080323942            0    3365.1465   0.97275551 1.5813679e+08 
    2000    287.74627 -0.00048278618            0    3430.0097   0.99308176 1.578858e+08 
    2100    280.05049 -0.0022634942            0    3338.2722   0.96822059 1.5760852e+08 
    2200    281.68143 -0.011547462            0    3357.7041   0.97664649 1.5715743e+08 
    2300    288.96058 -0.0011276893            0     3444.484    1.0053505 1.5661713e+08 
    2400    284.31653 -0.00023290525            0    3389.1266   0.99164146 1.5623053e+08 
    2500    280.19201 -0.00018502177            0    3339.9613   0.97905752 1.5594305e+08 
    2600     285.3941 -0.00097713012            0    3401.9707   0.99897076 1.5567196e+08 
    2700    285.15546 -0.00065803178            0    3399.1264   0.99880332 1.5556791e+08 
    2800    275.58642 -0.042295547            0    3285.0193   0.96503835 1.5560201e+08 
    2900    286.81373 -2.8843825e-05            0     3418.894    1.0045957 1.5557047e+08 
    3000    284.45042  -0.41842673            0    3390.3044   0.99522597 1.5569128e+08 
    3100    280.28271 -4.8887626e-05            0    3341.0426   0.97959446 1.5590805e+08 
    3200    285.25356 -3.3294471e-05            0    3400.2964   0.99587714 1.5607878e+08 
    3300    287.96631 -5.0124558e-05            0     3432.633    1.0038531 1.5631118e+08 
    3400    280.85096 -0.00012087136            0    3347.8161   0.97712329 1.5661922e+08 
    3500    286.19709 -0.00040177173            0    3411.5431   0.99445034 1.5681966e+08 
    3600     284.2951 -0.00031924029            0     3388.871   0.98670033 1.5700104e+08 
    3700    281.46629 -0.00020966404            0     3355.151   0.97621771 1.5710796e+08 
    3800      289.431 -0.00030135625            0    3450.0923    1.0039687 1.5708812e+08 
    3900    283.25624 -0.00087052022            0     3376.487   0.98243308 1.5710671e+08 
    4000    280.80519 -9.1503958e-05            0    3347.2707   0.97442305 1.5702764e+08 
    4100    290.15842 -0.0029525578            0    3458.7607    1.0083386 1.5680007e+08 
    4200    283.62538 -0.00025804667            0    3380.8879   0.98658504 1.5664951e+08 
    4300    281.06827 -0.00057200452            0    3350.4061   0.97889055 1.5645737e+08 
    4400    288.44982 -1.3563243e-05            0    3438.3967    1.0065716 1.5615079e+08 
    4500    283.82512 -4.5328664e-05            0     3383.269   0.99192895 1.5591532e+08 
    4600    281.13623 -0.00023899775            0    3351.2166   0.98413744 1.556609e+08 
    4700    288.04948  -0.01076654            0    3433.6137     1.010437 1.5533608e+08 
    4800    281.30333 -0.00023662748            0    3353.2085   0.98831802 1.5509458e+08 
    4900    284.03081 -7.2184511e-05            0    3385.7208   0.99971398 1.5481328e+08 
    5000    288.18718 -0.00012082305            0    3435.2658      1.01596 1.5456692e+08 
    5100    280.74671 -0.00011773831            0    3346.5735   0.99046765 1.5445177e+08 
    5200    283.75281 -0.0046616955            0    3382.4024     1.002051 1.5430043e+08 
    5300    288.89263 -0.00025979166            0    3443.6749    1.0208415 1.5420435e+08 
    5400    279.99832 -0.0065038568            0    3337.6461   0.98902052 1.5426455e+08 
    5500    284.72512 -0.019566885            0    3393.9777    1.0055375 1.5429028e+08 
    5600    287.41512 -0.0001124965            0    3426.0626    1.0144139 1.5438778e+08 
    5700    279.87097 -0.0001123273            0    3336.1345   0.98636424 1.5461052e+08 
    5800    286.73066 -0.00048468134            0    3417.9034    1.0093459 1.5479341e+08 
    5900    284.50701 -0.0004703238            0    3391.3969   0.99976052 1.5506556e+08 
    6000    280.53197 -5.6878504e-05            0    3344.0138   0.98380407 1.5537899e+08 
    6100    288.07616 -1.2201192e-05            0    3433.9426    1.0086755 1.5562322e+08 
    6200    284.65825 -0.0002599338            0    3393.1999   0.99460199 1.559527e+08 
    6300    280.03926 -0.0090463586            0    3338.1316   0.97640841 1.5627966e+08 
    6400    287.02435 -6.9182796e-05            0    3421.4046     0.999628 1.5645839e+08 
    6500    284.26999 -8.0517815e-05            0     3388.572   0.98896277 1.5662807e+08 
    6600    279.49571 -0.0009625301            0    3331.6604   0.97186022 1.5670741e+08 
    6700    288.02601  -0.45806137            0    3432.8866    1.0020259 1.5657459e+08 
    6800    283.03109 -0.0012420812            0    3373.8028   0.98600201 1.5641357e+08 
    6900    280.41798 -0.00011255149            0    3342.6549   0.97868931 1.5612754e+08 
    7000    290.82352 -0.0087052468            0    3466.6831    1.0179154 1.5568011e+08 
    7100    282.46105 -0.012600949            0    3366.9964   0.99097601 1.5531347e+08 
    7200    281.21176 -7.9350733e-05            0    3352.1171    0.9892585 1.5489672e+08 
    7300    287.43728 -3.5459822e-05            0    3426.3269    1.0143684 1.5440662e+08 
    7400    283.77456 -0.0011124107            0    3382.6652    1.0038778 1.5403192e+08 
    7500    278.30584 -0.00039593605            0    3317.4774   0.98660625 1.5370814e+08 
    7600    288.10347 -0.0009388425            0    3434.2672     1.023781 1.5334147e+08 
    7700    282.59316 -0.00094053456            0    3368.5829    1.0052964 1.5317423e+08 
    7800    278.45774 -4.1596864e-05            0    3319.2884   0.99109257 1.5309592e+08 
    7900     289.2831 -1.8577694e-05            0    3448.3296    1.0300139 1.5303773e+08 
    8000    280.71492 -0.00036281127            0    3346.1942   0.99828778 1.5322448e+08 
    8100    281.24986 -5.173745e-05            0    3352.5712   0.99861862 1.5346565e+08 
    8200    289.04886 -0.00035711717            0     3445.537    1.0243935 1.5375274e+08 
    8300    277.25462 -0.0051628008            0    3304.9418   0.97962072 1.5421881e+08 
    8400    283.12991  -0.11702932            0    3374.8649   0.99795896 1.5457806e+08 
    8500    287.70887 -0.0020118392            0    3429.5623    1.0120343 1.549087e+08 
    8600    278.38432 -9.8795282e-05            0    3318.4133   0.97677156 1.5529958e+08 
    8700    283.79874 -5.1739737e-05            0    3382.9545   0.99442534 1.5550946e+08 
    8800     287.6343 -0.0008080321            0    3428.6747    1.0070014 1.5564273e+08 
    8900    280.53283 -0.0027520503            0    3344.0213   0.98121857 1.5578851e+08 
    9000    276.66382 -0.00029773528            0    3297.9042   0.96795516 1.5574552e+08 
    9100    281.45001 -7.5173978e-05            0     3354.957    0.9867726 1.554185e+08 
    9200    283.68114 -0.00063757148            0    3381.5521   0.99757784 1.5495371e+08 
    9300    281.53634 -1.5527517e-05            0    3355.9862   0.99321378 1.5445795e+08 
    9400    283.31605 -1.5777192e-05            0    3377.2008    1.0029217 1.5392981e+08 
    9500    283.05075 -5.3217997e-05            0    3374.0383    1.0051335 1.5344724e+08 
    9600    281.69215 -0.013577194            0    3357.8299    1.0029555 1.530405e+08 
    9700    284.04402 -0.0040195119            0    3385.8744     1.013556 1.5270558e+08 
    9800    283.30947 -0.00033604052            0     3377.122    1.0121971 1.5251565e+08 
    9900    281.60597 -0.0054844702            0    3356.8108    1.0064597 1.524621e+08 
   10000     284.7865 -0.00012235056            0    3394.7289     1.017519 1.5250896e+08 
Loop time of 16.2722 on 4 procs for 10000 steps with 4000 atoms

Performance: 53.097 ns/day, 0.452 hours/ns, 614.545 timesteps/s
99.9% CPU use with 4 MPI tasks x no OpenMP threads

MPI task timing breakdown:
Section |  min time  |  avg time  |  max time  |%varavg| %total
---------------------------------------------------------------
Pair    | 0.11666    | 0.12005    | 0.12437    |   0.8 |  0.74
Neigh   | 13.735     | 13.816     | 13.871     |   1.4 | 84.91
Comm    | 0.56411    | 0.63053    | 0.73427    |   8.3 |  3.87
Output  | 0.21813    | 0.2185     | 0.21957    |   0.1 |  1.34
Modify  | 1.3262     | 1.3377     | 1.3455     |   0.7 |  8.22
Other   |            | 0.1493     |            |       |  0.92

Nlocal:    1000 ave 1027 max 968 min
Histogram: 1 0 0 0 0 1 1 0 0 1
Nghost:    111 ave 127 max 103 min
Histogram: 1 2 0 0 0 0 0 0 0 1
Neighs:    10 ave 11 max 7 min
Histogram: 1 0 0 0 0 0 0 0 0 3

Total # of neighbors = 40
Ave neighs/atom = 0.01
Neighbor list builds = 10000
Dangerous builds not checked
Total wall time: 0:04:55
