LAMMPS (16 Feb 2016)
Reading restart file ...
  restart file = 16 Feb 2016, LAMMPS = 16 Feb 2016
  orthogonal box = (3.03355 2.97955 3.02605) to (31.9915 31.9375 31.984)
  2 by 2 by 3 MPI processor grid
  2400 atoms
  1600 bonds
  800 angles
Finding 1-2 1-3 1-4 neighbors ...
 Special bond factors lj:   0          0          0         
 Special bond factors coul: 0          0          0         
  2 = max # of 1-2 neighbors
  1 = max # of 1-3 neighbors
  1 = max # of 1-4 neighbors
  2 = max # of special neighbors
Setting atom values ...
  1600 settings made for charge
Setting atom values ...
  800 settings made for charge
800 atoms in group O_Water
1600 atoms in group H_Water
Finding SHAKE clusters ...
  0 = # of size 2 clusters
  0 = # of size 3 clusters
  0 = # of size 4 clusters
  800 = # of frozen angles
Resetting global state of Fix integrate Style nvt from restart file info
Resetting global state of Fix integrate Style nvt from restart file info
Resetting global state of Fix f1 Style ordern from restart file info
Resetting global state of Fix f3 Style ordern from restart file info
PPPM initialization ...
  G vector (1/distance) = 0.336942
  grid = 40 40 40
  stencil order = 5
  estimated absolute RMS force accuracy = 0.000391029
  estimated relative force accuracy = 1.17757e-06
  using double precision FFTs
  3d grid and FFT values/proc = 15309 6400
Neighbor list info ...
  1 neighbor list requests
  update every 1 steps, delay 0 steps, check yes
  max neighbors/atom: 2000, page size: 100000
  master list distance cutoff = 12
  ghost atom cutoff = 12
  binsize = 6, bins = 5 5 5
Setting up Verlet run ...
  Unit style  : real
  Current step: 0
  Time step   : 1
Memory usage per processor = 9.02279 Mbytes
Step Temp TempAve Press PressAve PotEng PEAve KinEng KEAve TotEng TEAve Density 
       0    302.88618            0    -19.26574            0   -8831.4054            0     1443.651            0   -7387.7544            0   0.98554079 
  100000    301.63084    302.93187   -926.52262   -28.138345     -8896.26   -8850.0423    1437.6677    1443.8688   -7458.5924   -7406.1734   0.98554079 
  200000     318.0519    303.20287   -318.03783    -41.95138     -8848.45   -8841.4239    1515.9356    1445.1605   -7332.5144   -7396.2634   0.98554079 
  300000    296.83636    303.29513     754.2274   -65.045073   -8791.8844     -8828.95    1414.8157    1445.6002   -7377.0687   -7383.3498   0.98554079 
  400000    301.37098    303.25647   -288.16227    -45.08761   -8854.2141   -8843.8431    1436.4291     1445.416    -7417.785   -7398.4271   0.98554079 
  500000    309.08371    303.12844   -518.75515   -19.431477   -8847.4265   -8834.9571    1473.1904    1444.8057    -7374.236   -7390.1514   0.98554079 
  600000    305.35934    302.99563    24.627842   -30.597542   -8811.3755   -8839.9732    1455.4389    1444.1727   -7355.9366   -7395.8005   0.98554079 
  700000     308.3941    303.25721   -42.411545   -43.763367   -8820.4196   -8848.3424    1469.9035    1445.4195   -7350.5161    -7402.923   0.98554079 
  800000    296.48079    303.07329    55.946084   -76.144418    -8853.772   -8841.2565    1413.1209    1444.5429   -7440.6511   -7396.7136   0.98554079 
  900000    300.74651    303.19328    57.148462   -43.309359   -8761.7738   -8837.1169    1433.4527    1445.1148   -7328.3211   -7392.0021   0.98554079 
 1000000    306.33578    303.38801   -376.30672   -48.854128   -8802.8854   -8837.1708    1460.0929    1446.0429   -7342.7925   -7391.1278   0.98554079 
 1100000    304.39348    303.12332    53.908048   -29.669966   -8857.4965   -8843.4008    1450.8353    1444.7813   -7406.6612   -7398.6194   0.98554079 
 1200000    295.72925    303.34512    90.569867   -27.745574   -8864.5652   -8836.3653    1409.5388    1445.8385   -7455.0263   -7390.5268   0.98554079 
 1300000     301.6884    303.15921    171.84684   -25.158129   -8739.3328   -8843.0067     1437.942    1444.9524   -7301.3907   -7398.0544   0.98554079 
 1400000    307.26806    303.04305      -84.724   -70.516516   -8830.6084   -8842.5284    1464.5365    1444.3987   -7366.0719   -7398.1296   0.98554079 
 1500000    303.79743    303.18468    328.62898   -45.835315   -8792.5314   -8848.1647    1447.9943    1445.0738   -7344.5371   -7403.0909   0.98554079 
 1600000    301.86087    303.14429   -215.56292   -27.759407   -8879.8307   -8841.6542    1438.7641    1444.8813   -7441.0666   -7396.7729   0.98554079 
 1700000    295.88907    303.24415    93.476329   -28.635168   -8768.2091   -8841.8779    1410.3006    1445.3572   -7357.9085   -7396.5207   0.98554079 
 1800000     307.0244    303.25248    -742.1358   -13.514881    -8881.932   -8836.4487    1463.3751    1445.3969   -7418.5569   -7391.0518   0.98554079 
 1900000    300.08921    303.22769    552.58466   -35.101293   -8843.7345   -8843.5974    1430.3198    1445.2788   -7413.4147   -7398.3186   0.98554079 
 2000000    306.08902    302.82533   -163.50211   -60.435683   -8808.1609   -8847.2665    1458.9168     1443.361   -7349.2441   -7403.9055   0.98554079 
 2100000    307.37964    303.17754   -198.00711    -24.04756   -8901.2404    -8841.126    1465.0683    1445.0398   -7436.1721   -7396.0862   0.98554079 
 2200000    310.64991    302.99679   -218.47328   -59.552445   -8847.2026   -8841.1949    1480.6554    1444.1782   -7366.5472   -7397.0167   0.98554079 
 2300000    304.16463    303.31977    567.57962   -7.8977606   -8817.6147   -8839.9331    1449.7445    1445.7176   -7367.8702   -7394.2155   0.98554079 
 2400000    306.48186    303.24572     -379.599   -3.6581158   -8781.7059   -8836.0637    1460.7892    1445.3647   -7320.9167    -7390.699   0.98554079 
 2500000    297.39004    303.07791   -589.67277    -25.84125   -8730.0813   -8834.4285    1417.4547    1444.5649   -7312.6266   -7389.8636   0.98554079 
 2600000    301.10431    303.02263   -100.61057   -36.793711   -8905.1099   -8844.1167    1435.1581    1444.3014   -7469.9518   -7399.8153   0.98554079 
 2700000    304.19335    303.17142    412.36463    -36.61881   -8890.8942   -8838.2955    1449.8814    1445.0106   -7441.0128   -7393.2849   0.98554079 
 2800000    304.91799    303.10006    1019.8992   -16.061052   -8719.0335   -8841.2798    1453.3353    1444.6705   -7265.6983   -7396.6094   0.98554079 
 2900000    296.01655    303.06068    384.64003    6.6206278   -8875.2616   -8840.5004    1410.9082    1444.4828   -7464.3534   -7396.0176   0.98554079 
 3000000    309.76865    303.15809    21.101478   -35.952289   -8811.8299   -8847.7465     1476.455     1444.947   -7335.3749   -7402.7995   0.98554079 
 3100000    296.21866     303.2318    197.15477   -51.449863   -8830.8921    -8840.903    1411.8715    1445.2984   -7419.0206   -7395.6046   0.98554079 
 3200000    304.95392    302.94155   -362.64747   -4.9773064    -8880.179   -8837.5584    1453.5065     1443.915   -7426.6725   -7393.6434   0.98554079 
 3300000    298.77807    303.26637    609.73708   -24.826177    -8821.407   -8834.8894    1424.0705    1445.4631   -7397.3365   -7389.4263   0.98554079 
 3400000    295.62473    303.21246   -415.13411   -43.179651   -8807.9177   -8846.8536    1409.0407    1445.2062   -7398.8771   -7401.6474   0.98554079 
 3500000    294.93514    303.28666   -601.45428    12.115622    -8871.389   -8841.9442    1405.7539    1445.5598   -7465.6351   -7396.3844   0.98554079 
 3600000    299.03426    303.37962   -237.99299    -29.11704   -8874.3846   -8839.8865    1425.2915    1446.0029   -7449.0931   -7393.8836   0.98554079 
 3700000    301.16417    303.23016    409.89817    1.1938006   -8807.2442   -8845.2535    1435.4434    1445.2905   -7371.8008    -7399.963   0.98554079 
 3800000    304.49274    303.23582   -165.42824   -13.605368   -8769.5076   -8836.4192    1451.3084    1445.3175   -7318.1993   -7391.1017   0.98554079 
 3900000    303.49655    303.09692   -291.73635   -12.146729   -8828.0989   -8839.3924    1446.5602    1444.6555   -7381.5386    -7394.737   0.98554079 
 4000000     295.3377    302.94791    179.50233   -56.404213   -8863.0833   -8846.0749    1407.6726    1443.9453   -7455.4107   -7402.1296   0.98554079 
 4100000    311.79605    302.83252   -91.324968   -50.989948   -8817.6733   -8841.6996    1486.1183    1443.3952   -7331.5551   -7398.3044   0.98554079 
 4200000    301.00448    303.12965   -52.476884   -22.945184   -8875.3548   -8840.4024    1434.6822    1444.8115   -7440.6726   -7395.5909   0.98554079 
 4300000    301.19143    303.08928    -326.5181   -37.030359   -8916.7173    -8843.697    1435.5733    1444.6191   -7481.1439   -7399.0779   0.98554079 
 4400000    304.79015     303.1326   -319.63623   -52.181701   -8864.2805   -8834.4483    1452.7259    1444.8255   -7411.5546   -7389.6228   0.98554079 
 4500000     307.6664    303.14561    115.06313   -45.361281    -8831.444   -8839.6384     1466.435    1444.8875   -7365.0089   -7394.7509   0.98554079 
 4600000    317.43036    303.25767    23.226336   -9.7486327   -8851.5368    -8835.113    1512.9732    1445.4217   -7338.5636   -7389.6913   0.98554079 
 4700000    295.42735    303.04572   -941.47004   -54.708344   -8872.9549    -8847.192    1408.0999    1444.4115   -7464.8551   -7402.7805   0.98554079 
 4800000    322.47948    303.04564   -5.7463875   -18.090888   -8822.4335   -8844.8124    1537.0389    1444.4111   -7285.3946   -7400.4014   0.98554079 
 4900000    294.17042     302.7004    542.07118   -1.0771283   -8911.5897   -8851.1177    1402.1089    1442.7655   -7509.4807   -7408.3522   0.98554079 
 5000000       301.92    302.89602   -172.26524   -12.963704   -8845.0395   -8839.8399    1439.0459    1443.6979   -7405.9936    -7396.142   0.98554079 
 5100000    297.66422    303.02708    984.78959   -41.263728     -8780.04   -8838.2359    1418.7615    1444.3226   -7361.2785   -7393.9133   0.98554079 
 5200000    300.62375    303.24471    96.817516   0.53673643   -8891.2319   -8843.2169    1432.8675    1445.3599   -7458.3644   -7397.8571   0.98554079 
 5300000    318.82152     303.2244    258.36994    -62.39243   -8903.0712   -8834.3339    1519.6039    1445.2631   -7383.4673   -7389.0708   0.98554079 
 5400000    304.08285    303.28322    215.56637   -32.912342   -8876.4409   -8837.9597    1449.3547    1445.5435   -7427.0862   -7392.4163   0.98554079 
 5500000    308.12344    302.86261    426.53075   -59.035014   -8825.8652   -8836.3971    1468.6135    1443.5387   -7357.2518   -7392.8584   0.98554079 
 5600000    302.29254    303.07475    202.61489   -12.774538   -8803.5646   -8839.9982    1440.8216    1444.5498   -7362.7431   -7395.4484   0.98554079 
 5700000    315.14516    303.20667     149.3917   -19.017424   -8832.7543    -8840.524    1502.0812    1445.1786   -7330.6731   -7395.3454   0.98554079 
 5800000    302.83396    303.09022    245.96238   -38.878263   -8916.7475   -8846.2893    1443.4021    1444.6235   -7473.3454   -7401.6657   0.98554079 
 5900000    306.71941    303.31584    416.32016   -35.527967   -8741.4293   -8843.5245    1461.9214    1445.6989   -7279.5079   -7397.8256   0.98554079 
 6000000     310.1193     303.2013    119.97267   -40.271823   -8792.5787   -8834.9737    1478.1264     1445.153   -7314.4524   -7389.8207   0.98554079 
 6100000    316.31924    303.10752    86.235719   -29.581206   -8891.5901   -8845.3685    1507.6772     1444.706   -7383.9128   -7400.6625   0.98554079 
 6200000    314.77905    303.22772     260.6576   -31.410837   -8794.9188   -8840.5508    1500.3362    1445.2789   -7294.5827   -7395.2719   0.98554079 
 6300000    293.66779    303.18263   -26.044779    3.0284842   -8826.9889   -8844.4896    1399.7133     1445.064   -7427.2756   -7399.4256   0.98554079 
 6400000    307.12034    303.01689    76.113415   -30.066168   -8809.1691   -8839.0086    1463.8324     1444.274   -7345.3367   -7394.7346   0.98554079 
 6500000     301.1604     302.9183    909.06081   -40.773636    -8816.157   -8844.6768    1435.4254    1443.8041   -7380.7316   -7400.8726   0.98554079 
 6600000    306.09282    303.15542   -8.2707577    -25.80458    -8872.193   -8835.4871    1458.9349    1444.9343   -7413.2581   -7390.5528   0.98554079 
 6700000    308.13069    303.17189    -420.4028   -26.763403   -8854.8645   -8840.8258     1468.648    1445.0128   -7386.2164    -7395.813   0.98554079 
 6800000    299.10573    303.20139    415.79721   -46.307914   -8841.8846    -8836.191    1425.6322    1445.1534   -7416.2524   -7391.0376   0.98554079 
 6900000    300.61518    303.08215    554.12304   -17.144241   -8808.1461   -8840.5942    1432.8267    1444.5851   -7375.3193   -7396.0091   0.98554079 
 7000000    305.72691    303.04264    398.30149   -23.510426    -8879.098   -8833.7071    1457.1908    1444.3968   -7421.9072   -7389.3103   0.98554079 
 7100000    303.18287    303.08081   -618.32419   -49.600531   -8908.2907   -8839.6549    1445.0651    1444.5787   -7463.2256   -7395.0762   0.98554079 
 7200000    304.11931    303.22752   -1029.2699   -28.146293   -8813.8798   -8840.4401    1449.5285    1445.2779   -7364.3513   -7395.1621   0.98554079 
 7300000    306.85873    303.51062    467.02664   -1.7213112   -8754.7828   -8836.0594    1462.5854    1446.6273   -7292.1974   -7389.4321   0.98554079 
 7400000    302.70099    303.25639    18.208315   -51.819265   -8822.7741   -8844.1813    1442.7683    1445.4156   -7380.0057   -7398.7658   0.98554079 
 7500000    298.79695    303.11225   -85.826932    -43.95962   -8862.8793   -8837.4763    1424.1604    1444.7285   -7438.7188   -7392.7478   0.98554079 
 7600000    302.57028     302.9945    582.67188   -16.781693   -8820.1344   -8840.2301    1442.1453    1444.1673   -7377.9891   -7396.0628   0.98554079 
 7700000    306.27754    303.32833    199.48108   -10.910983   -8836.3745   -8837.1566    1459.8153    1445.7585   -7376.5592   -7391.3981   0.98554079 
 7800000    300.28967    303.16318   -1027.4003   -51.035625   -8824.5146   -8837.4391    1431.2752    1444.9713   -7393.2393   -7392.4678   0.98554079 
 7900000    297.73295    303.13279   -93.546289   -36.784865   -8898.2005    -8839.646    1419.0891    1444.8264   -7479.1114   -7394.8195   0.98554079 
 8000000    305.05814    303.39199   -267.69566   -33.096701   -8882.5118   -8832.4279    1454.0033    1446.0619   -7428.5085    -7386.366   0.98554079 
 8100000    308.86914    303.07764   -473.03262   -8.3403363   -8890.7029   -8839.4912    1472.1677    1444.5636   -7418.5352   -7394.9276   0.98554079 
 8200000    303.96892    303.13999    393.85388   -38.168838   -8890.9849   -8843.4415    1448.8117    1444.8608   -7442.1732   -7398.5808   0.98554079 
 8300000    316.71642    303.37682   -402.23215   -49.538221   -8918.0446    -8836.815    1509.5703    1445.9896   -7408.4743   -7390.8255   0.98554079 
 8400000    300.63783    303.02571    136.76953   -20.633776   -8881.1675   -8848.1894    1432.9347    1444.3161   -7448.2329   -7403.8734   0.98554079 
 8500000    309.46543    303.05369   -312.90368   -28.907764   -8809.6596   -8841.7723    1475.0098    1444.4494   -7334.6498   -7397.3229   0.98554079 
 8600000    299.87014    303.41958    22.585982   -37.560967   -8782.6965   -8838.2152    1429.2756    1446.1934   -7353.4209   -7392.0218   0.98554079 
 8700000    311.11344    303.02753   -731.19137   -38.618478   -8864.5707   -8846.1761    1482.8648    1444.3247   -7381.7059   -7401.8514   0.98554079 
 8800000    290.44885    302.93836   -643.54363   -29.247728   -8886.2723   -8842.7055    1384.3708    1443.8997   -7501.9015   -7398.8058   0.98554079 
 8900000    294.69731    303.13516   -933.92841   -31.372076    -8887.028     -8843.47    1404.6203    1444.8377   -7482.4077   -7398.6323   0.98554079 
 9000000    317.20425    302.93807    189.13888   -19.945136   -8856.0106   -8846.5637    1511.8955    1443.8984   -7344.1151   -7402.6654   0.98554079 
 9100000    307.04512      303.197    142.31405   -35.988459   -8856.2702   -8841.3154    1463.4739    1445.1325   -7392.7964    -7396.183   0.98554079 
 9200000     310.6473     303.1851    570.29221    28.870351   -8888.8017   -8838.6561     1480.643    1445.0758   -7408.1587   -7393.5803   0.98554079 
 9300000    307.99864    303.16866    435.55446   -26.850847   -8876.5881   -8840.8548    1468.0186    1444.9974   -7408.5695   -7395.8574   0.98554079 
 9400000    305.10887    303.13377    147.67274   -17.083228     -8871.32    -8840.781    1454.2451    1444.8311   -7417.0749   -7395.9499   0.98554079 
 9500000    313.42348    303.10883    -107.0641    2.2172926   -8869.9465   -8843.8358    1493.8751    1444.7122   -7376.0714   -7399.1235   0.98554079 
 9600000    315.29405    303.29145    -177.0557   -85.134648    -8820.572   -8840.7672    1502.7908    1445.5826   -7317.7811   -7395.1845   0.98554079 
 9700000    310.54902     303.1045   -382.42002   -47.345639   -8807.1081   -8836.7407    1480.1745    1444.6916   -7326.9336   -7392.0492   0.98554079 
 9800000    302.92743     303.3933    310.61234   -43.522245   -8836.2664   -8840.1127    1443.8477    1446.0681   -7392.4187   -7394.0445   0.98554079 
 9900000    291.91666    303.11826   -922.74223    -25.71087   -8829.2788   -8840.0297    1391.3668    1444.7572    -7437.912   -7395.2725   0.98554079 
10000000    304.02525    303.09541   -229.85045   -48.331223   -8983.4523   -8839.8051    1449.0802    1444.6483   -7534.3721   -7395.1568   0.98554079 
10100000    301.71401    303.13585    249.29458   -30.051134   -8878.3226   -8840.4091    1438.0641    1444.8411   -7440.2585    -7395.568   0.98554079 
10200000    309.29447    303.26677   -1041.0522   -26.571075   -8770.0158   -8842.1274    1474.1949     1445.465   -7295.8209   -7396.6624   0.98554079 
10300000    296.18473    303.13708    -228.7252   -65.145116   -8910.1188   -8839.4643    1411.7098    1444.8469    -7498.409   -7394.6174   0.98554079 
10400000    315.67446    302.91535   -563.60506   -42.999671   -8853.0036    -8837.811     1504.604    1443.7901   -7348.3996   -7394.0209   0.98554079 
10500000    301.60181     302.7671    37.104567   -46.101904   -8901.3628   -8846.6464    1437.5293    1443.0834   -7463.8335   -7403.5629   0.98554079 
10600000    307.62651    303.28086     598.5706   -4.5793891   -8891.2727   -8840.2269    1466.2449    1445.5322   -7425.0277   -7394.6947   0.98554079 
10700000    296.43437    303.12342    388.63853   -13.441195    -8733.116   -8839.9018    1412.8996    1444.7818   -7320.2164   -7395.1201   0.98554079 
10800000    299.23194    302.98143   -282.00674 -0.060133091   -8831.7425   -8847.8854    1426.2338     1444.105   -7405.5087   -7403.7803   0.98554079 
10900000    298.01558    303.33162   -250.17548  -0.94751625    -8836.598     -8834.32    1420.4362    1445.7741   -7416.1618   -7388.5459   0.98554079 
11000000    308.29311    302.91306    -433.8207    -41.70795   -8766.6579   -8841.2344    1469.4221    1443.7792   -7297.2358   -7397.4552   0.98554079 
11100000    313.25452    303.02467     -218.414   -31.577098   -8825.1026   -8847.0404    1493.0698    1444.3111   -7332.0328   -7402.7293   0.98554079 
11200000    308.55399    302.92423   -204.03044   -32.007796   -8868.1886   -8842.2773    1470.6656    1443.8324    -7397.523   -7398.4449   0.98554079 
11300000    301.07955    303.17921    18.798431   -25.529161   -8930.9824   -8837.4165    1435.0401    1445.0477   -7495.9424   -7392.3688   0.98554079 
11400000     304.9986    303.07042   -285.00843   -19.217476   -8816.4943   -8842.8556    1453.7195    1444.5292   -7362.7748   -7398.3264   0.98554079 
11500000    302.04312    303.33084   -816.77576   -30.174948   -8812.7931   -8837.1641    1439.6327    1445.7704   -7373.1604   -7391.3937   0.98554079 
11600000    293.51352    303.07122   -503.54964   -49.608773   -8796.6793   -8843.3388     1398.978     1444.533   -7397.7013   -7398.8059   0.98554079 
11700000    297.55159    303.20093   -175.78737   -28.617373   -8886.3236   -8835.4896    1418.2247    1445.1512    -7468.099   -7390.3384   0.98554079 
11800000    299.81451    303.20723   -496.50525   -36.391472   -8951.5024   -8834.5589    1429.0105    1445.1812    -7522.492   -7389.3776   0.98554079 
11900000    315.23722    303.12298    -356.3703   -1.7692736   -8808.5437   -8839.8081      1502.52    1444.7797   -7306.0237   -7395.0284   0.98554079 
12000000    309.78674    303.27342    2.0872042   -49.851081   -8852.3528   -8838.3214    1476.5412    1445.4967   -7375.8115   -7392.8247   0.98554079 
12100000    301.20406    303.17498   -249.94409   -47.826528   -8828.7034   -8837.6865    1435.6335    1445.0275   -7393.0699    -7392.659   0.98554079 
12200000    306.13718    303.20172    350.10913    -43.91045   -8854.3023   -8833.5972    1459.1463     1445.155    -7395.156   -7388.4422   0.98554079 
12300000     296.1688     303.1416   -151.15025   -27.440057     -8796.17   -8843.2012    1411.6339    1444.8684   -7384.5362   -7398.3328   0.98554079 
12400000    307.91959    303.02537    810.34219    19.501256   -8806.8997   -8845.6506    1467.6418    1444.3145   -7339.2579   -7401.3361   0.98554079 
12500000    303.49263     303.4654    65.386075   -9.9262581   -8829.8971      -8841.4    1446.5416    1446.4118   -7383.3555   -7394.9882   0.98554079 
12600000     311.3072    303.21849   -221.21906   -66.686722    -8748.872   -8833.8924    1483.7883    1445.2349   -7265.0837   -7388.6575   0.98554079 
12700000    302.20101    303.55785     360.3169   0.67737902   -8797.0458   -8828.8408    1440.3853    1446.8524   -7356.6605   -7381.9883   0.98554079 
12800000    304.45603    303.26897   -175.07059   -39.257103    -8904.856   -8836.0864    1451.1334    1445.4755   -7453.7226   -7390.6109   0.98554079 
12900000    299.38813    303.12079   -88.796391    4.8708658   -8920.7376   -8841.1063    1426.9782    1444.7693   -7493.7594    -7396.337   0.98554079 
13000000     306.8999    303.08576   -370.33554   -68.691162   -8850.7328    -8838.407    1462.7817    1444.6023   -7387.9511   -7393.8047   0.98554079 
13100000    309.64908    303.17928   -413.97133   -38.074201   -8880.3329   -8838.0798    1475.8851     1445.048   -7404.4478   -7393.0318   0.98554079 
13200000    303.86255    303.18089    169.51867   -9.0314602   -8783.1436   -8842.3904    1448.3047    1445.0557   -7334.8389   -7397.3347   0.98554079 
13300000    305.62746    303.29821    759.54277   -41.945724   -8786.1257   -8838.5119    1456.7168    1445.6149   -7329.4089    -7392.897   0.98554079 
13400000    298.21718    303.15259    231.52403   -70.889401   -8815.1665   -8835.5885    1421.3971    1444.9208   -7393.7693   -7390.6676   0.98554079 
13500000    304.28763    303.11464    125.61779   -43.694647   -8852.3439   -8844.7654    1450.3308    1444.7399   -7402.0131   -7400.0255   0.98554079 
13600000    300.42517    303.03551   -44.657372   -11.121449   -8852.3683   -8843.4837    1431.9211    1444.3628   -7420.4473   -7399.1209   0.98554079 
13700000    307.99021    303.14459    184.68966   -34.847793   -8811.5047   -8844.2281    1467.9785    1444.8827   -7343.5262   -7399.3454   0.98554079 
13800000    316.54061    303.10752   -281.20771   -30.112051   -8806.0629   -8841.1622    1508.7324     1444.706   -7297.3305   -7396.4562   0.98554079 
13900000    297.12288    303.21064    316.39355   -59.515356   -8786.0532   -8831.0964    1416.1813    1445.1975   -7369.8719   -7385.8989   0.98554079 
14000000    300.04165    303.35126    290.59147   -4.5309267   -8882.4944    -8831.669    1430.0931    1445.8677   -7452.4013   -7385.8013   0.98554079 
14100000     314.1585    303.22507    157.45761   -73.097636   -8816.2339   -8832.9593    1497.3785    1445.2663   -7318.8554   -7387.6931   0.98554079 
14200000    312.08162    303.05438    821.51002   -11.320768   -8800.0622   -8844.2536    1487.4794    1444.4527   -7312.5828   -7399.8009   0.98554079 
14300000    302.28236    302.99145   -405.01861   -6.1193089   -8889.2213   -8842.8173     1440.773    1444.1528   -7448.4482   -7398.6645   0.98554079 
14400000    300.41083    303.18193    20.928116   -40.071095   -8847.0635   -8839.0345    1431.8527    1445.0607   -7415.2108   -7393.9738   0.98554079 
14500000    301.54042    303.26161    641.80647   -31.702653   -8875.1229   -8836.2244    1437.2367    1445.4404   -7437.8862   -7390.7839   0.98554079 
14600000    305.81309    303.14982    472.74257   -3.5236628   -8815.4686   -8842.0077    1457.6016    1444.9076   -7357.8671   -7397.1001   0.98554079 
14700000    303.89748    303.12868    451.12525   -34.685131   -8853.1709   -8840.7287    1448.4712    1444.8069   -7404.6998   -7395.9218   0.98554079 
14800000    294.58385    302.98752    26.649483    7.8545536   -8833.7695   -8848.7278    1404.0795     1444.134     -7429.69   -7404.5938   0.98554079 
14900000    302.61986    303.29137    946.16212    -16.07811   -8872.3472   -8841.8505    1442.3817    1445.5823   -7429.9656   -7396.2682   0.98554079 
15000000    295.14135    303.18063    351.71591   -39.779434   -8759.2966   -8841.4026    1406.7367    1445.0545   -7352.5599   -7396.3482   0.98554079 
15100000    313.19687    303.17257   -77.245093   -56.926463   -8876.0961   -8840.7686     1492.795    1445.0161   -7383.3011   -7395.7525   0.98554079 
15200000    303.46264    303.39589   -404.84392   -59.624565   -8854.7804   -8840.2509    1446.3986    1446.0804   -7408.3818   -7394.1705   0.98554079 
15300000    299.11322    303.15163    -58.03827   -81.094342   -8811.4905   -8839.1518    1425.6679    1444.9162   -7385.8226   -7394.2356   0.98554079 
15400000    318.79098    302.99472    43.267674   -34.843909   -8812.2991    -8844.369    1519.4583    1444.1684   -7292.8408   -7400.2006   0.98554079 
15500000    301.45163    303.14784    294.33634   -27.099417   -8893.2839   -8838.8888    1436.8135    1444.8982   -7456.4704   -7393.9907   0.98554079 
15600000     304.4538     303.3619    715.05424    12.724945   -8752.6678   -8844.6375    1451.1228    1445.9184   -7301.5451   -7398.7191   0.98554079 
15700000    302.25004    303.06084   -791.46827   -49.659153   -8847.0423   -8841.3852     1440.619    1444.4835   -7406.4233   -7396.9017   0.98554079 
15800000    304.70076    303.21671    823.76512   -14.202609   -8887.1829   -8843.6725    1452.2999    1445.2264    -7434.883   -7398.4461   0.98554079 
15900000     307.0198    303.18519   -950.34228   -36.540204   -8883.1902   -8841.5669    1463.3532    1445.0762    -7419.837   -7396.4907   0.98554079 
16000000    292.32812    303.19151   -779.78338   -38.259791   -8822.1347   -8837.9923     1393.328    1445.1063   -7428.8067   -7392.8859   0.98554079 
16100000    302.88714    303.26723    487.26306   -22.148712   -8899.0925   -8839.1851    1443.6556    1445.4672   -7455.4369   -7393.7178   0.98554079 
16200000    295.16906    303.18029    269.90325   -24.289272   -8881.2021   -8839.7146    1406.8688    1445.0529   -7474.3333   -7394.6617   0.98554079 
16300000     310.0267    302.97511   -453.34109   -41.648048   -8813.9377   -8841.3126     1477.685    1444.0749   -7336.2527   -7397.2378   0.98554079 
16400000    300.12542     303.2839   -80.241658   -19.864051   -8846.1012   -8844.0227    1430.4924    1445.5467   -7415.6088   -7398.4761   0.98554079 
16500000    301.64526    303.27463    91.839128   -25.843334    -8815.665   -8839.3994    1437.7364    1445.5025   -7377.9286   -7393.8969   0.98554079 
16600000    309.47593    303.33655   -197.97368    -16.15837    -8811.109   -8837.2171    1475.0598    1445.7976   -7336.0492   -7391.4195   0.98554079 
16700000    296.44307    303.10212    253.02311   -79.975586   -8872.7457   -8842.3856    1412.9411    1444.6802   -7459.8046   -7397.7053   0.98554079 
16800000    312.53532    303.09994   -20.455626    -45.64899   -8837.3162   -8839.3552    1489.6419    1444.6699   -7347.6743   -7394.6853   0.98554079 
16900000    299.82009    303.00978   -184.62566   -47.498641   -8846.4949   -8845.7076    1429.0371    1444.2401   -7417.4578   -7401.4674   0.98554079 
17000000    302.03663    303.12637   -750.11442   -45.180229   -8839.8332      -8838.9    1439.6018    1444.7958   -7400.2314   -7394.1042   0.98554079 
17100000    298.13148    303.16322   -797.88491   -12.715378    -8798.864   -8835.1869    1420.9886    1444.9715   -7377.8754   -7390.2154   0.98554079 
17200000    309.01447    303.04478    328.15365   -64.688393    -8775.306   -8839.9141    1472.8604     1444.407   -7302.4456   -7395.5071   0.98554079 
17300000    306.47176    303.35014    900.05264   -27.474784   -8836.7253   -8838.3269     1460.741    1445.8624   -7375.9843   -7392.4645   0.98554079 
17400000    300.75989    303.18917   -219.88267    -21.27786   -8782.5239   -8841.2855    1433.5164    1445.0952   -7349.0075   -7396.1903   0.98554079 
17500000    305.23711    303.19701     209.9353   -15.348487   -8908.8509   -8846.6876    1454.8563    1445.1325   -7453.9946   -7401.5551   0.98554079 
17600000    301.27039    303.38034    775.25493   -68.135208   -8723.1659   -8833.1376    1435.9497    1446.0064   -7287.2162   -7387.1312   0.98554079 
17700000    302.01667    302.96951     61.34535   -57.963802   -8865.4353   -8839.9004    1439.5067    1444.0482   -7425.9286   -7395.8522   0.98554079 
17800000    307.40092    303.26262    116.31638   -25.058784   -8822.5767    -8838.914    1465.1697    1445.4453    -7357.407   -7393.4687   0.98554079 
17900000    306.49904     303.1526    187.23878    -20.86744   -8889.7938   -8842.4259    1460.8711    1444.9209   -7428.9227    -7397.505   0.98554079 
18000000    306.75344    303.07082    99.897855   -16.919803   -8843.4214    -8842.688    1462.0836    1444.5311   -7381.3378   -7398.1569   0.98554079 
18100000    282.90141    303.00206    173.61379    -46.62355    -8803.123   -8844.6538    1348.3973    1444.2034   -7454.7257   -7400.4504   0.98554079 
18200000    305.55245    302.94276     209.8619   -34.495129   -8809.6903   -8839.3362    1456.3593    1443.9207    -7353.331   -7395.4155   0.98554079 
18300000    306.40816     303.2781    475.61904   -11.329347   -8850.4001   -8839.6991    1460.4379     1445.519   -7389.9622   -7394.1801   0.98554079 
18400000     307.6773    303.15705    168.44756   -32.160116   -8862.0153   -8836.1502     1466.487    1444.9421   -7395.5283   -7391.2081   0.98554079 
18500000    316.45099    303.04409    620.42336   -38.712364   -8880.0133   -8844.6123    1508.3052    1444.4037   -7371.7081   -7400.2087   0.98554079 
18600000    314.65948    303.28011    49.795168   -3.0967222   -8869.2505   -8843.4916    1499.7663    1445.5286   -7369.4842    -7397.963   0.98554079 
18700000     308.9689    303.29057     80.08638   -55.340877   -8789.9168   -8837.1057    1472.6432    1445.5785   -7317.2737   -7391.5272   0.98554079 
18800000    308.72848    303.17213   -405.65388   -4.3361783    -8875.846   -8833.1704    1471.4973    1445.0139   -7404.3487   -7388.1565   0.98554079 
18900000    299.44975    303.01165   -300.68534   -33.316982   -8796.5822   -8842.4276    1427.2719    1444.2491   -7369.3103   -7398.1785   0.98554079 
19000000    318.77599    302.85344   -357.34734    1.3719955   -8847.0205   -8842.9341    1519.3869     1443.495   -7327.6337   -7399.4392   0.98554079 
19100000    293.13924    303.29434    708.47797   -56.838763   -8767.4881   -8838.8204     1397.194    1445.5964   -7370.2941    -7393.224   0.98554079 
19200000    306.51775    303.18928    185.59814   -3.5664876   -8872.7624   -8840.7813    1460.9602    1445.0957   -7411.8021   -7395.6856   0.98554079 
19300000    310.18401    303.40756    781.95106    -10.17689   -8854.4899   -8841.9084    1478.4348    1446.1361   -7376.0552   -7395.7723   0.98554079 
19400000    301.82607    303.07094   -27.593686   -14.230946   -8763.6823   -8841.8294    1438.5982    1444.5317   -7325.0841   -7397.2977   0.98554079 
19500000     300.8934    303.35599     -344.218   -31.405492   -8852.0097   -8832.5395    1434.1528    1445.8903   -7417.8568   -7386.6492   0.98554079 
19600000    304.93889    303.24637    112.74056   -45.920268   -8959.1884   -8842.2925    1453.4349    1445.3678   -7505.7535   -7396.9246   0.98554079 
19700000    300.24849     303.1021    -107.7431    -4.075513   -8859.6496   -8842.0472     1431.079    1444.6801   -7428.5707    -7397.367   0.98554079 
19800000    298.11809     303.0141    189.36747    -30.93618   -8924.3963   -8845.0707    1420.9248    1444.2607   -7503.4715     -7400.81   0.98554079 
19900000    301.03293    303.32809   -58.226228   -69.253618   -8783.4676   -8835.8273    1434.8178    1445.7573   -7348.6498     -7390.07   0.98554079 
20000000    288.49994    303.15805   -122.31188   -27.041581   -8775.1487   -8842.4566    1375.0817    1444.9469   -7400.0671   -7397.5097   0.98554079 
20100000    297.51699    302.98323    -379.3732    -59.32168   -8831.5518   -8842.4287    1418.0598    1444.1136    -7413.492   -7398.3151   0.98554079 
20200000    308.16549    303.22408    260.17412   -34.503813   -8791.8213   -8841.0427    1468.8139    1445.2616   -7323.0074   -7395.7811   0.98554079 
20300000    296.42002    303.02397   -14.267375   -45.881578    -8775.216   -8832.2736    1412.8313    1444.3078   -7362.3848   -7387.9659   0.98554079 
20400000     304.2204    303.36792    724.31202    -55.51974   -8859.9615    -8839.011    1450.0103    1445.9471   -7409.9512   -7393.0639   0.98554079 
20500000    300.14891     303.2151    -347.8199   -30.786629    -8980.692   -8844.2238    1430.6043    1445.2187   -7550.0877    -7399.005   0.98554079 
20600000     309.2361    303.16288    559.44782   -48.114149   -8830.3962   -8835.3557    1473.9167    1444.9699   -7356.4794   -7390.3859   0.98554079 
20700000    307.62883    303.23422   -746.65888   -68.841077   -8886.8096   -8837.2914     1466.256    1445.3099   -7420.5536   -7391.9815   0.98554079 
20800000    305.75262    303.21974   -578.56615    6.6500998    -8807.258   -8839.9791    1457.3134    1445.2409   -7349.9446   -7394.7382   0.98554079 
20900000    301.37454    303.18979    329.86663   -28.211716    -8826.798    -8839.864    1436.4461    1445.0981    -7390.352   -7394.7659   0.98554079 
21000000    314.48848    303.18232   -47.456999   -56.335893   -8771.2739   -8843.3475    1498.9513    1445.0625   -7272.3227    -7398.285   0.98554079 
21100000    312.07797    303.23454    215.60878    17.133774   -8818.6177   -8842.2286     1487.462    1445.3114   -7331.1557   -7396.9172   0.98554079 
21200000    307.05664    303.08024    470.57188   -38.894221   -8903.3339    -8840.144    1463.5287     1444.576   -7439.8052    -7395.568   0.98554079 
21300000    307.17512    303.02183    165.74772    6.0679895   -8879.2033   -8843.6332    1464.0934    1444.2976   -7415.1099   -7399.3357   0.98554079 
21400000    303.25766    303.07892   -612.30931   -53.821945   -8882.2216   -8840.5476    1445.4216    1444.5697      -7436.8   -7395.9779   0.98554079 
21500000    307.74354    303.08284    -35.14859   -14.044018   -8862.4512   -8842.2602    1466.8027    1444.5884   -7395.6485   -7397.6719   0.98554079 
21600000     304.9952    303.08202    100.21545   -30.064976   -8793.3353   -8847.3374    1453.7033    1444.5845   -7339.6321   -7402.7529   0.98554079 
21700000    302.94533     303.2076    63.489702   -24.977288   -8807.9513   -8833.7651     1443.933     1445.183   -7364.0183   -7388.5821   0.98554079 
21800000    305.54248    302.78198    758.41102   -43.487047   -8774.0657   -8846.9715    1456.3118    1443.1544   -7317.7539   -7403.8171   0.98554079 
21900000    294.50937    303.24121   -351.08476   -61.013677   -8838.9099   -8833.7512    1403.7245    1445.3432   -7435.1854    -7388.408   0.98554079 
22000000    294.94676    303.17414    138.25637   -8.1961565   -8840.7605   -8843.0425    1405.8093    1445.0235   -7434.9513    -7398.019   0.98554079 
22100000    304.31823    303.05939   -37.147638   -36.462296   -8880.2153   -8841.3152    1450.4766    1444.4766   -7429.7387   -7396.8386   0.98554079 
22200000    301.32089    303.01482   -853.96712   -39.246681   -8876.1725   -8843.9786    1436.1903    1444.2642   -7439.9822   -7399.7144   0.98554079 
22300000    301.57003    303.13662   -1152.1003   -37.342124   -8848.1953   -8842.9788    1437.3778    1444.8447   -7410.8175   -7398.1341   0.98554079 
22400000    303.21417    303.19813    48.570942    10.343417   -8844.8814   -8838.2096    1445.2143    1445.1379    -7399.667   -7393.0717   0.98554079 
22500000    300.25147    303.10248   -238.54773   -38.115081    -8785.933   -8839.1971    1431.0932     1444.682   -7354.8398   -7394.5151   0.98554079 
22600000    302.93765    303.03807    194.71148    -49.71488   -8811.5943   -8841.3467    1443.8964     1444.375   -7367.6979   -7396.9717   0.98554079 
22700000    309.37659    303.20464   -91.630721   -9.4269172   -8883.6818   -8843.0443    1474.5864    1445.1689   -7409.0955   -7397.8754   0.98554079 
22800000    305.60823    303.05947   -66.977664   -42.066908   -8998.5542   -8848.0649    1456.6252     1444.477    -7541.929   -7403.5879   0.98554079 
22900000    291.70285    303.24842   -82.214297   -36.782972   -8818.4393   -8842.8492    1390.3478    1445.3776   -7428.0915   -7397.4717   0.98554079 
23000000    295.17698    302.98849   -185.31556   -39.857912   -8795.8169   -8841.4579    1406.9066    1444.1387   -7388.9104   -7397.3192   0.98554079 
23100000    293.13089    303.30168   -483.46834   -54.192888    -8869.807   -8837.5079    1397.1542    1445.6314   -7472.6528   -7391.8764   0.98554079 
23200000    306.12973    303.18927   -147.91695   -25.434648   -8774.2272   -8839.4842    1459.1108    1445.0956   -7315.1164   -7394.3886   0.98554079 
23300000    307.64674    303.18511   -709.13011   -57.511881   -8880.7642   -8841.4199    1466.3414    1445.0758   -7414.4228    -7396.344   0.98554079 
23400000    314.27598    303.24673   -298.31144   -28.851163   -8825.4107   -8834.9154    1497.9384    1445.3695   -7327.4723   -7389.5459   0.98554079 
23500000    308.05976    303.33485    347.42277   -47.681734   -8870.3811   -8843.2344    1468.3099    1445.7895   -7402.0712   -7397.4448   0.98554079 
23600000    300.17124    302.76603   -30.084408   -73.291903   -8823.4796   -8844.0205    1430.7108    1443.0784   -7392.7688   -7400.9421   0.98554079 
23700000     300.5438    303.27731   -434.02661   -24.869784   -8902.2466   -8845.3588    1432.4865    1445.5153     -7469.76   -7399.8435   0.98554079 
23800000    296.23956    303.18912    241.78468   -6.3192021    -8892.209   -8838.6397    1411.9711    1445.0949   -7480.2378   -7393.5447   0.98554079 
23900000    316.10551    302.87377   -316.34035   -59.139164   -8846.1654   -8844.0473    1506.6585    1443.5919   -7339.5069   -7400.4554   0.98554079 
24000000    298.70667    303.23147    12.394771   -33.138367   -8798.7211   -8835.3213    1423.7302    1445.2968   -7374.9909   -7390.0245   0.98554079 
24100000    303.35985    303.00151    464.47881   -17.553732   -8843.4733   -8844.4931    1445.9087    1444.2007   -7397.5647   -7400.2924   0.98554079 
24200000    300.52716    303.08494    385.59877   -25.791142   -8868.2253   -8842.0632    1432.4072    1444.5984   -7435.8181   -7397.4649   0.98554079 
24300000       299.59    303.04268   -378.82847   -69.282597   -8855.7107   -8834.6562    1427.9404     1444.397   -7427.7703   -7390.2592   0.98554079 
24400000    304.35472    302.94183   -858.70039   -31.216346    -8861.567   -8845.4565    1450.6506    1443.9163   -7410.9164   -7401.5402   0.98554079 
24500000    309.92633    302.89029    430.38619   -61.469425   -8820.3638   -8841.5691    1477.2066    1443.6706   -7343.1572   -7397.8984   0.98554079 
24600000     303.5648    302.95889   -544.52908   -50.422346   -8904.8416   -8843.7822    1446.8855    1443.9976   -7457.9561   -7399.7846   0.98554079 
24700000    317.52553    302.92129    442.36786   -28.619672   -8861.5114   -8845.4842    1513.4268    1443.8184   -7348.0846   -7401.6659   0.98554079 
24800000    305.69092    303.29025   -421.24632   -14.298493   -8908.5941   -8837.6772    1457.0193    1445.5769   -7451.5748   -7392.1003   0.98554079 
24900000    306.20164    303.22822    162.15372   -38.662215   -8880.7232   -8845.9999    1459.4535    1445.2813   -7421.2697   -7400.7187   0.98554079 
25000000    306.78406    303.06435     32.86544   -8.7209626   -8892.6905   -8842.3714    1462.2295    1444.5002   -7430.4609   -7397.8712   0.98554079 
25100000    294.81302    303.16171   -339.87803   -66.128626   -8871.7882   -8829.2197    1405.1718    1444.9643   -7466.6164   -7384.2554   0.98554079 
25200000    308.00117    303.17385   -155.24692   -29.134128   -8895.0847   -8839.6906    1468.0307    1445.0222    -7427.054   -7394.6685   0.98554079 
25300000     305.0442    303.29519    327.47495   -40.389032   -8828.7519   -8843.3453    1453.9368    1445.6005   -7374.8151   -7397.7448   0.98554079 
25400000    304.30748    303.17745   -103.90975    -57.23529   -8840.6678   -8835.6857    1450.4254    1445.0393   -7390.2425   -7390.6464   0.98554079 
25500000    306.96292    303.17567   -629.07085   -16.687136   -8884.8457   -8838.1286    1463.0821    1445.0308   -7421.7636   -7393.0978   0.98554079 
25600000    297.99076    303.39462    102.38679   -51.994318   -8655.6864   -8845.6407    1420.3179    1446.0744   -7235.3685   -7399.5662   0.98554079 
25700000    300.28375    303.24935    88.851216   -43.567786    -8790.644   -8837.9474     1431.247     1445.382    -7359.397   -7392.5654   0.98554079 
25800000    311.13343    303.00861   -68.674331   -8.7507597   -8839.9505   -8842.0613      1482.96    1444.2346   -7356.9905   -7397.8267   0.98554079 
25900000    307.37645    303.18224   -292.12138   -13.613616   -8905.6089   -8847.4349    1465.0531    1445.0621   -7440.5558   -7402.3728   0.98554079 
26000000    303.94026    302.89576    111.33624   -11.551952   -8845.9982   -8849.0035    1448.6751    1443.6967   -7397.3231   -7405.3068   0.98554079 
26100000    296.87714    303.46089    80.019748   -9.0394933   -8893.8463   -8830.7412      1415.01    1446.3903   -7478.8362   -7384.3509   0.98554079 
26200000     320.2263    303.35142   -253.17291   -65.039812   -8817.2801   -8834.7224    1526.2995    1445.8685   -7290.9806   -7388.8539   0.98554079 
26300000    299.57919    303.25536   -280.48472   -40.901953   -8817.3983   -8836.2277    1427.8889    1445.4107   -7389.5094    -7390.817   0.98554079 
26400000    303.87935    303.32251   -103.62201   -26.103358   -8849.4726   -8839.0336    1448.3848    1445.7307   -7401.0878   -7393.3029   0.98554079 
26500000    305.08784    303.02627   -610.69207   -41.949453   -8856.4357   -8846.2372    1454.1448    1444.3187   -7402.2909   -7401.9185   0.98554079 
26600000    307.28257    303.14392    342.78572   -29.002108   -8892.6996   -8842.2576    1464.6056    1444.8795    -7428.094   -7397.3782   0.98554079 
26700000    305.30341    303.27807   -376.91165   -62.640554   -8845.5684   -8834.9962    1455.1723    1445.5189   -7390.3961   -7389.4773   0.98554079 
26800000    300.04772    303.05881    65.312038    -12.16247   -8861.0974   -8842.0164     1430.122    1444.4738   -7430.9753   -7397.5425   0.98554079 
26900000    299.45682    303.10345   -205.64898   -44.473883   -8817.7996   -8844.6512    1427.3056    1444.6866    -7390.494   -7399.9646   0.98554079 
27000000    299.20368    303.46249    149.90339   -49.373257   -8835.3557   -8840.0442    1426.0991    1446.3979   -7409.2566   -7393.6463   0.98554079 
27100000     299.6489    303.10951    416.52788   -19.077641   -8836.4548    -8842.298    1428.2211    1444.7155   -7408.2337   -7397.5825   0.98554079 
27200000    307.03255    303.09175    597.31846   -31.936846   -8872.6784   -8839.6444    1463.4139    1444.6308   -7409.2645   -7395.0136   0.98554079 
27300000    305.35465    303.19427   -100.52629   -35.829269   -8875.7761    -8837.444    1455.4165    1445.1195   -7420.3596   -7392.3246   0.98554079 
27400000    307.60451    302.93448   -520.61144     -55.0344   -8886.0254   -8842.2075      1466.14    1443.8812   -7419.8854   -7398.3263   0.98554079 
27500000    297.44061    303.24073   -9.6080488    -35.00167   -8798.4206   -8837.0751    1417.6957    1445.3409   -7380.7249   -7391.7341   0.98554079 
27600000    316.92034    302.90896    164.05635    -23.30387   -8849.7829   -8842.4797    1510.5422    1443.7596   -7339.2406     -7398.72   0.98554079 
27700000    300.01322    303.01984    521.97059   -36.179133   -8830.5269   -8848.2079    1429.9576    1444.2881   -7400.5693   -7403.9198   0.98554079 
27800000    298.58918    302.98024   -37.629501   -19.331998   -8863.2219   -8844.5635    1423.1702    1444.0994   -7440.0518   -7400.4642   0.98554079 
27900000    303.06609     303.0635   -510.26676    -52.11205   -8824.0666   -8842.9545    1444.5085    1444.4962   -7379.5581   -7398.4583   0.98554079 
28000000    306.30674     303.1356    222.28884    3.5595551   -8842.4323   -8846.8243    1459.9545    1444.8398   -7382.4778   -7401.9845   0.98554079 
28100000    297.35577    303.24273   -335.09519   -8.1825653    -8854.397   -8846.9513    1417.2914    1445.3505   -7437.1056   -7401.6008   0.98554079 
28200000    306.69993    303.09089   -968.50318   -41.985492   -8843.9748   -8835.3453    1461.8286    1444.6267   -7382.1463   -7390.7185   0.98554079 
28300000    308.53261    303.18126   -920.68796   -27.369443   -8860.0491   -8835.6229    1470.5637    1445.0575   -7389.4854   -7390.5655   0.98554079 
28400000    321.40225    303.18595    42.248485   -54.286651    -8950.517   -8843.9245    1531.9045    1445.0798   -7418.6125   -7398.8447   0.98554079 
28500000    304.82116    303.51331   -205.25208   -18.997216    -8807.529   -8831.7443    1452.8737    1446.6401   -7354.6553   -7385.1042   0.98554079 
28600000    299.93542    303.25702   -328.27093   -26.049742    -8798.525   -8835.7176    1429.5868    1445.4186   -7368.9382   -7390.2991   0.98554079 
28700000    308.48656    303.04208   -201.28038   -24.559431   -8756.2471   -8839.4579    1470.3442    1444.3941    -7285.903   -7395.0638   0.98554079 
28800000    306.25632    303.12373    220.09455   -35.127973   -8860.7298   -8848.7997    1459.7142    1444.7833   -7401.0156   -7404.0164   0.98554079 
28900000    301.66681    303.13438   -620.76965   -41.795068    -8858.756   -8842.7698    1437.8391     1444.834   -7420.9169   -7397.9358   0.98554079 
29000000    310.09833    303.11903     123.6333   -54.796304   -8814.3616   -8842.0579    1478.0264    1444.7609   -7336.3351   -7397.2971   0.98554079 
29100000    296.01486    303.04386    564.62267   -23.481307   -8876.7447   -8840.2983    1410.9002    1444.4026   -7465.8446   -7395.8957   0.98554079 
29200000    294.17665    303.33265    115.58264   -70.410317   -8866.7277   -8835.4465    1402.1387    1445.7791   -7464.5891   -7389.6675   0.98554079 
29300000    304.63797     303.0282   -236.59334   -41.157695   -8932.1151   -8839.4933    1452.0006    1444.3279   -7480.1145   -7395.1653   0.98554079 
29400000    306.72663    302.80517    230.48207    -39.48562   -8864.3025   -8839.8324    1461.9558    1443.2649   -7402.3466   -7396.5675   0.98554079 
29500000    309.35455     303.4025    -199.3063   -28.670072   -8796.6567   -8838.6155    1474.4813     1446.112   -7322.1754   -7392.5035   0.98554079 
29600000    290.07946    303.06707   -101.79028   -4.5613732   -8847.1756   -8841.8943    1382.6102    1444.5132   -7464.5654   -7397.3811   0.98554079 
29700000    301.86169    303.35471   -762.61802   -46.597457   -8805.1547   -8839.8734     1438.768    1445.8842   -7366.3867   -7393.9892   0.98554079 
29800000    294.35478    303.25413   -19.731054   -59.571588   -8814.3001    -8839.023    1402.9877    1445.4048   -7411.3124   -7393.6182   0.98554079 
29900000    302.98566    303.18396    270.74907   -42.787055   -8809.6903   -8839.1185    1444.1252    1445.0703   -7365.5651   -7394.0481   0.98554079 
30000000    305.10584    303.34149    238.53227    10.561512   -8814.0415   -8847.7077    1454.2306    1445.8212   -7359.8109   -7401.8865   0.98554079 
30100000    308.40142    303.28826    -172.2795   -34.218828   -8842.8611    -8841.515    1469.9384    1445.5675   -7372.9227   -7395.9475   0.98554079 
30200000     304.9329    303.23032   -974.29427    -16.61035   -8831.9424   -8840.9772    1453.4063    1445.2913   -7378.5361   -7395.6859   0.98554079 
30300000    310.53014    303.09712    85.612431   -7.2008339     -8809.01    -8839.395    1480.0845    1444.6564   -7328.9255   -7394.7386   0.98554079 
30400000    303.57914    303.24218    95.754022   -40.228945    -8841.968   -8839.2217    1446.9539    1445.3478   -7395.0141   -7393.8739   0.98554079 
30500000    302.18023    303.23403    299.51264   -9.1401471   -8824.9598   -8843.9646    1440.2863     1445.309   -7384.6735   -7398.6556   0.98554079 
30600000    291.19921    303.10722    35.292367   -8.8783424   -8888.0941   -8843.6368    1387.9472    1444.7046   -7500.1468   -7398.9322   0.98554079 
30700000    298.73708      303.212   -415.80765   -31.826008   -8839.3513   -8838.9658    1423.8751     1445.204   -7415.4762   -7393.7618   0.98554079 
30800000     300.9509    303.40603    29.487565    -23.96219   -8813.7586   -8835.0738    1434.4269    1446.1288   -7379.3317    -7388.945   0.98554079 
30900000    302.15668    303.34783   -87.691383   -34.537647   -8759.6815   -8838.7139     1440.174    1445.8514   -7319.5075   -7392.8625   0.98554079 
31000000    305.12898    303.09584   -33.585554   -11.100756   -8825.9204   -8837.9798    1454.3409    1444.6503   -7371.5795   -7393.3295   0.98554079 
31100000    311.76236    303.01415   -361.66663   -33.539175   -8824.0483   -8841.1425    1485.9577     1444.261   -7338.0906   -7396.8815   0.98554079 
31200000    310.32288    303.38109    144.02769    -53.82686   -8862.7168   -8839.3376    1479.0967    1446.0099   -7383.6201   -7393.3277   0.98554079 
31300000    313.90802    303.03134     170.6984   -75.530552    -8857.369   -8843.0267    1496.1846    1444.3429   -7361.1844   -7398.6838   0.98554079 
31400000    301.68605    303.10239   -164.03136   -44.832184   -8845.4786   -8836.6596    1437.9308    1444.6815   -7407.5478    -7391.978   0.98554079 
31500000    297.30852    303.02733    151.28293   -38.491725   -8807.7527   -8842.5442    1417.0661    1444.3238   -7390.6865   -7398.2204   0.98554079 
31600000    320.45363    303.23429    -22.32913     -19.5799   -8890.5771   -8837.8434     1527.383    1445.3102   -7363.1941   -7392.5331   0.98554079 
31700000    294.46419    303.37201    242.26932   -46.347444   -8875.0009   -8836.1109    1403.5091    1445.9666   -7471.4918   -7390.1442   0.98554079 
31800000     300.8144    303.08372    -34.97214   -46.183773   -8840.4505   -8844.6782    1433.7763    1444.5926   -7406.6742   -7400.0856   0.98554079 
31900000    308.68345    303.04819   -540.29003   -46.841168   -8849.7414   -8847.4974    1471.2826    1444.4232   -7378.4588   -7403.0742   0.98554079 
32000000    310.09534    303.33712    245.27077   -11.582028   -8849.8502   -8848.6707    1478.0122    1445.8003    -7371.838   -7402.8704   0.98554079 
32100000     293.0609    303.02534   -71.875519   -44.409302   -8853.0439   -8837.3241    1396.8206    1444.3143   -7456.2233   -7393.0097   0.98554079 
32200000    288.23393    303.19337   -218.36375   -27.505706   -8885.2237   -8842.1651    1373.8138    1445.1152   -7511.4099   -7397.0499   0.98554079 
32300000    310.02386    303.21123    1357.6097   -22.388832   -8793.3625   -8838.6065    1477.6715    1445.2003    -7315.691   -7393.4062   0.98554079 
32400000    306.72865    303.17822    271.87201   -37.549809   -8814.3874   -8833.0474    1461.9654     1445.043    -7352.422   -7388.0044   0.98554079 
32500000    309.76997    303.08389   -76.388474    -17.38225   -8766.0253   -8846.0495    1476.4613    1444.5934    -7289.564   -7401.4561   0.98554079 
32600000    302.72288    303.04133   -262.05326   -12.453323   -8863.8795   -8841.5256    1442.8727    1444.3905   -7421.0068   -7397.1351   0.98554079 
32700000     309.7821    302.99504   -399.14519   -14.497628    -8844.423   -8844.2134    1476.5192    1444.1699   -7367.9038   -7400.0435   0.98554079 
32800000    310.84908    303.11465    273.60338   -54.297543   -8910.3718   -8834.3086    1481.6047      1444.74    -7428.767   -7389.5686   0.98554079 
32900000    299.21482    303.23315    10.943838   -29.449686   -8929.3952   -8841.5748    1426.1522    1445.3048    -7503.243     -7396.27   0.98554079 
33000000    294.03943    303.24996    435.25191   -10.483015    -8878.982   -8842.1265    1401.4846    1445.3849   -7477.4973   -7396.7416   0.98554079 
33100000    302.01545     303.0408   -438.21605   -25.366243   -8872.1736   -8845.3645    1439.5009     1444.388   -7432.6727   -7400.9765   0.98554079 
33200000     303.8572    303.13863    499.51339   -15.188284   -8874.6105   -8840.4911    1448.2792    1444.8543   -7426.3313   -7395.6368   0.98554079 
33300000    301.42681    303.27201    -419.3496   -47.788472   -8892.0369   -8840.6623    1436.6952      1445.49   -7455.3417   -7395.1723   0.98554079 
33400000    303.71332    303.30771   -594.51368     -28.8401   -8828.9575   -8842.3507    1447.5934    1445.6602   -7381.3641   -7396.6905   0.98554079 
33500000    303.10797    303.30299   -748.21088   -16.827541   -8888.4937   -8840.7383    1444.7081    1445.6377   -7443.7855   -7395.1006   0.98554079 
33600000    302.06841    303.21577    99.676795   -3.8362618   -8829.9004   -8843.4547    1439.7533     1445.222   -7390.1471   -7398.2328   0.98554079 
33700000    307.49746    303.03573   -90.818008   -17.684814   -8786.7606   -8848.7141    1465.6298    1444.3638   -7321.1308   -7404.3502   0.98554079 
33800000    297.12054    303.15335    203.39207   -55.920243   -8776.4209   -8845.7317    1416.1702    1444.9244   -7360.2508   -7400.8072   0.98554079 
33900000    302.06143      303.077    97.962531   -10.917059   -8889.8927   -8841.9984      1439.72    1444.5605   -7450.1727   -7397.4378   0.98554079 
34000000    296.03802    303.32824   -296.85021   -52.270902   -8778.5912   -8840.4377    1411.0105     1445.758   -7367.5807   -7394.6796   0.98554079 
34100000    298.11095    303.04827   -417.02492    8.1037092   -8839.1952   -8846.6205    1420.8908    1444.4236   -7418.3044   -7402.1969   0.98554079 
34200000    300.10853    303.09925   -410.15284   -10.565095   -8814.0205    -8838.458    1430.4119    1444.6666   -7383.6086   -7393.7915   0.98554079 
34300000    306.98235    303.10891    511.96955   -40.366492    -8829.317   -8844.9821    1463.1746    1444.7126   -7366.1423   -7400.2694   0.98554079 
34400000    320.88381    303.42819    572.98946   -35.109335   -8784.0544   -8842.2715    1529.4334    1446.2344    -7254.621   -7396.0371   0.98554079 
34500000    305.87741    302.94803    700.17895    -8.605152   -8857.4851   -8843.9061    1457.9082    1443.9458   -7399.5769   -7399.9603   0.98554079 
34600000    305.94518    303.04524   -46.769026   -15.284588   -8905.3213   -8846.0801    1458.2312    1444.4091   -7447.0901   -7401.6709   0.98554079 
34700000    315.38545    303.10578    75.896605   -50.505397   -8807.4535    -8838.014    1503.2265    1444.6977   -7304.2269   -7393.3163   0.98554079 
34800000     301.4007    303.24512    33.772636   -12.786719   -8823.5656   -8835.4551    1436.5708    1445.3618   -7386.9948   -7390.0933   0.98554079 
34900000    309.31365     303.0861    331.06058   -51.053333   -8831.0919   -8840.0868    1474.2864    1444.6039   -7356.8055   -7395.4829   0.98554079 
35000000    304.94558    303.27163    83.982802   -55.556215   -8830.9882   -8841.6441    1453.4668    1445.4882   -7377.5214   -7396.1559   0.98554079 
35100000     295.8447    303.23235   -276.22473   -69.430368    -8865.895   -8837.5646    1410.0891     1445.301   -7455.8059   -7392.2636   0.98554079 
35200000     308.3603    303.09175   -98.835574   -16.164423   -8828.2393    -8837.391    1469.7424    1444.6308   -7358.4969   -7392.7601   0.98554079 
35300000    297.41566    303.02803    599.66968   -98.002196   -8861.0309   -8833.4265    1417.5768    1444.3271   -7443.4541   -7389.0994   0.98554079 
35400000    299.21099     303.3818   -235.62063   -6.3063247   -8932.1068   -8833.2608    1426.1339    1446.0133   -7505.9729   -7387.2475   0.98554079 
35500000    298.69604    303.27763   -196.63739   -38.539338   -8901.8693   -8835.0736    1423.6795    1445.5168   -7478.1898   -7389.5568   0.98554079 
35600000    300.34611    302.91838    341.68344    -54.46031   -8843.7829   -8842.4002    1431.5443    1443.8045   -7412.2387   -7398.5957   0.98554079 
35700000    290.61504    303.20111   -530.86386   -60.968461   -8837.5367   -8837.7889    1385.1629    1445.1521   -7452.3737   -7392.6368   0.98554079 
35800000    304.98379    302.96406   -851.63517   -7.8502997   -8898.4979   -8846.2158    1453.6489    1444.0222    -7444.849   -7402.1936   0.98554079 
35900000    300.35577    303.13857    87.175679    -7.011828   -8760.2453   -8842.4738    1431.5903     1444.854   -7328.6551   -7397.6198   0.98554079 
36000000    308.63533    303.09305   -75.604255    -55.00317   -8823.1465   -8842.4506    1471.0533     1444.637   -7352.0932   -7397.8135   0.98554079 
36100000    304.98737    303.10876   -95.383337   -45.663649   -8842.2803   -8843.4667     1453.666    1444.7119   -7388.6144   -7398.7548   0.98554079 
36200000    293.79208    303.20868    208.87352   -22.337276   -8825.1057   -8844.8257    1400.3057    1445.1882      -7424.8   -7399.6375   0.98554079 
36300000    299.28004    303.27799   -895.61808   -38.944783   -8913.3499   -8835.6186     1426.463    1445.5185   -7486.8868      -7390.1   0.98554079 
36400000    311.47101    302.80265   -524.40996     8.580041   -8768.4286    -8844.804     1484.569    1443.2529   -7283.8596   -7401.5511   0.98554079 
36500000    307.14138    303.08862   -385.67245   -16.758849   -8715.2586        -8837    1463.9327    1444.6159   -7251.3259   -7392.3841   0.98554079 
36600000    306.94588    303.13429   -693.28049   -53.497745   -8872.8501   -8836.6481    1463.0008    1444.8336   -7409.8493   -7391.8146   0.98554079 
36700000    306.24316      303.243   -310.87844   -40.238118    -8844.494   -8838.7057    1459.6514    1445.3517   -7384.8426    -7393.354   0.98554079 
36800000    303.69329    303.15796   -14.185452   -43.540468   -8877.2696   -8842.8954     1447.498    1444.9464   -7429.7716    -7397.949   0.98554079 
36900000    297.91906    303.24037     289.7869   -42.418833   -8910.8038   -8842.2818    1419.9762    1445.3392   -7490.8276   -7396.9426   0.98554079 
37000000    297.72078    303.20308   -609.23588   -40.253986   -8853.4222   -8839.3253    1419.0311    1445.1615   -7434.3911   -7394.1638   0.98554079 
37100000    302.31476    303.00013    533.12598    -23.98718   -8866.2563   -8841.6723    1440.9275    1444.1941   -7425.3289   -7397.4782   0.98554079 
37200000    297.88556    303.55926   -710.54201   -39.258867   -8814.6144   -8837.3913    1419.8165    1446.8591    -7394.798   -7390.5321   0.98554079 
37300000    294.16385    303.34652   -610.70593   -55.351306   -8752.7142   -8839.4889    1402.0777    1445.8452   -7350.6365   -7393.6437   0.98554079 
37400000    292.86826    302.89962    165.15686   -48.943058   -8774.5009   -8845.8254    1395.9025    1443.7151   -7378.5984   -7402.1104   0.98554079 
37500000    301.00586    303.14711    351.13319   -55.384075   -8765.7991   -8834.6754    1434.6888    1444.8947   -7331.1103   -7389.7807   0.98554079 
37600000    310.66958    303.33174     120.8819   -29.185891   -8814.2442   -8839.9449    1480.7492    1445.7747    -7333.495   -7394.1701   0.98554079 
37700000    300.71817    302.93725    138.80758     -11.3529    -8801.966   -8846.8469    1433.3176    1443.8945   -7368.6484   -7402.9524   0.98554079 
37800000    299.43662    303.14717    11.298381   -19.155505   -8777.2921   -8839.4289    1427.2093     1444.895   -7350.0827   -7394.5339   0.98554079 
37900000    292.63533    302.98056    -245.3088   -17.836359   -8882.0375    -8845.378    1394.7922    1444.1008   -7487.2453   -7401.2771   0.98554079 
38000000    317.38371    303.18456    266.38922   -58.113565   -8894.2698   -8832.4766    1512.7508    1445.0732    -7381.519   -7387.4034   0.98554079 
38100000    299.35276     302.9415   -421.24712   -19.115481   -8808.0813   -8834.2663    1426.8096    1443.9147   -7381.2717   -7390.3517   0.98554079 
38200000    301.93956    303.25059   -536.99905   -54.349582   -8782.6357   -8833.8432    1439.1391    1445.3879   -7343.4966   -7388.4553   0.98554079 
38300000    301.90929    303.40966   -522.11462   -15.843466   -8814.9251   -8837.5029    1438.9949    1446.1461   -7375.9303   -7391.3569   0.98554079 
38400000    313.02932     303.1826   -177.05252   -35.432232   -8842.6083   -8836.6424    1491.9964    1445.0639   -7350.6118   -7391.5786   0.98554079 
38500000    299.31525    303.06929    57.015353   -26.099254   -8767.9767   -8849.6103    1426.6308    1444.5238   -7341.3458   -7405.0865   0.98554079 
38600000    304.36013     303.0667    65.741421   -21.866834   -8790.3526   -8842.6633    1450.6763    1444.5114   -7339.6762   -7398.1518   0.98554079 
38700000    306.26562    303.23667    515.12613   -16.065596   -8925.3816   -8841.5859    1459.7585    1445.3216   -7465.6231   -7396.2643   0.98554079 
38800000    306.98135     302.9937    289.51557    -27.94073   -8875.5756    -8844.352    1463.1699    1444.1635   -7412.4057   -7400.1885   0.98554079 
38900000    305.46191    303.04532    34.464343    -30.30868    -8916.515   -8851.1346    1455.9278    1444.4095   -7460.5872    -7406.725   0.98554079 
39000000    300.22832    303.29333   -95.212502   -62.701903   -8842.4124   -8831.9091    1430.9828    1445.5916   -7411.4295   -7386.3174   0.98554079 
39100000    302.96018    303.00045    3.6672654   -36.582248   -8868.2536   -8836.6466    1444.0038    1444.1957   -7424.2498   -7392.4509   0.98554079 
39200000    297.72711    303.36036    604.31567    -40.67588   -8787.2301   -8846.3989    1419.0613    1445.9111   -7368.1688   -7400.4878   0.98554079 
39300000    302.99489    303.09227   -195.78744   -46.936841   -8830.8188   -8848.4056    1444.1692    1444.6333   -7386.6496   -7403.7723   0.98554079 
39400000    304.56248    302.98578    209.73819   -40.805638   -8844.8757   -8846.7779    1451.6408    1444.1258   -7393.2349   -7402.6521   0.98554079 
39500000    315.09623    303.03274    52.665722    -49.38028   -8873.3732   -8844.0768     1501.848    1444.3496   -7371.5252   -7399.7272   0.98554079 
39600000    303.83762    303.11872     265.6572   -25.982224   -8889.1594    -8841.725    1448.1859    1444.7594   -7440.9735   -7396.9656   0.98554079 
39700000     299.5689    303.19807   -28.179933   -18.934221   -8842.0453   -8845.0626    1427.8398    1445.1376   -7414.2055    -7399.925   0.98554079 
39800000    296.07792    303.18686    32.566278    -57.31294   -8914.1821   -8846.6803    1411.2007    1445.0842   -7502.9814   -7401.5962   0.98554079 
39900000    309.65237    303.17791   -151.86262   -18.699578   -8813.5482   -8841.7099    1475.9008    1445.0415   -7337.6474   -7396.6684   0.98554079 
40000000    294.88313     302.9923    422.60609   -59.200728    -8786.053   -8834.7597     1405.506    1444.1568    -7380.547   -7390.6029   0.98554079 
40100000    300.08014    303.23966   -8.6399726   -27.054696   -8810.6968   -8843.9829    1430.2766    1445.3358   -7380.4203    -7398.647   0.98554079 
40200000    303.90891    303.23554    24.550101   -1.9653905    -8849.488   -8842.5613    1448.5257    1445.3162   -7400.9623   -7397.2451   0.98554079 
40300000    315.97344    302.97924    360.57533   -23.831314   -8789.6311   -8842.7958    1506.0291    1444.0946   -7283.6021   -7398.7012   0.98554079 
40400000    309.03794    303.10042    1088.8242   -56.751789   -8843.6546   -8842.1248    1472.9723    1444.6722   -7370.6823   -7397.4527   0.98554079 
40500000     297.0916    303.12576     -362.827   -18.916511   -8843.3048   -8841.4025    1416.0322    1444.7929   -7427.2726   -7396.6096   0.98554079 
40600000    295.41034    303.17367   -403.06989   -56.310728   -8963.5208   -8837.4215    1408.0188    1445.0213    -7555.502   -7392.4002   0.98554079 
40700000    303.92013    303.06191    316.23176   -11.536983   -8836.4223   -8842.0146    1448.5792    1444.4886   -7387.8432    -7397.526   0.98554079 
40800000    309.64863    303.04577    594.41799    3.5926068   -8880.6339   -8836.0724     1475.883    1444.4117   -7404.7509   -7391.6608   0.98554079 
40900000    300.35471    303.09715   -236.92313    -53.27744   -8856.9242   -8839.5876    1431.5853    1444.6566    -7425.339    -7394.931   0.98554079 
41000000    299.49225    303.08957   -172.14055   -41.888048    -8887.778   -8831.9937    1427.4745    1444.6205   -7460.3035   -7387.3732   0.98554079 
41100000    304.35594     303.4683     372.3739    -13.57776   -8836.4503   -8842.3315    1450.6564    1446.4256    -7385.794    -7395.906   0.98554079 
41200000    310.57128    303.11591    93.831178   -29.215398    -8772.995   -8841.5878    1480.2806     1444.746   -7292.7144   -7396.8418   0.98554079 
41300000    310.57507    303.11305    241.72111   -65.179733   -8895.3009   -8840.8281    1480.2987    1444.7324   -7415.0022   -7396.0958   0.98554079 
41400000    295.84415    302.99104    -270.1676    3.7969572   -8849.0133   -8851.7238    1410.0865    1444.1508   -7438.9268    -7407.573   0.98554079 
41500000    299.67806    303.14308   -467.31365   -72.854889   -8812.9407   -8837.9673    1428.3601    1444.8755   -7384.5805   -7393.0918   0.98554079 
41600000    311.24242    303.26673   -475.71734   -64.169841   -8812.3196   -8844.0818    1483.4795    1445.4649   -7328.8401    -7398.617   0.98554079 
41700000    308.84127    303.05267    619.36215   -22.993693   -8852.9837   -8847.7679    1472.0348    1444.4446   -7380.9488   -7403.3233   0.98554079 
41800000    302.71632    303.19222   -437.09639    21.805617   -8860.8604    -8850.346    1442.8414    1445.1097    -7418.019   -7405.2363   0.98554079 
41900000    295.03398    302.87918    18.078622   -56.737326   -8935.7055   -8841.5034     1406.225    1443.6177   -7529.4805   -7397.8858   0.98554079 
42000000    291.71533    303.34963    985.16112   -14.383303   -8806.3297   -8827.9993    1390.4073      1445.86   -7415.9224   -7382.1394   0.98554079 
42100000     310.2328    303.20977    139.20446   -50.247929   -8871.6153   -8840.6577    1478.6673    1445.1934    -7392.948   -7395.4643   0.98554079 
42200000     310.8333    303.18091   -517.42084   -39.368204   -8784.3136   -8837.9841    1481.5295    1445.0558   -7302.7841   -7392.9283   0.98554079 
42300000    302.31642    303.26313   -1305.7186   -42.504551   -8806.7663   -8839.6265    1440.9354    1445.4477    -7365.831   -7394.1789   0.98554079 
42400000    302.27461    303.00304    -138.3367   -51.554076   -8899.4052   -8837.6428    1440.7361     1444.208   -7458.6691   -7393.4348   0.98554079 
42500000    290.06161    303.00444   -925.79906   -57.590961   -8808.8761   -8841.7271    1382.5251    1444.2147    -7426.351   -7397.5124   0.98554079 
42600000    292.84024    302.88094    323.93525   -52.520224    -8875.296   -8840.7308    1395.7689    1443.6261   -7479.5271   -7397.1048   0.98554079 
42700000    295.21719    303.17772    142.00819    -46.18893   -8819.4216   -8829.3235    1407.0982    1445.0406   -7412.3234   -7384.2828   0.98554079 
42800000    294.02665    303.01103   -121.58658   -24.148363   -8833.2382   -8840.2174    1401.4237    1444.2461   -7431.8145   -7395.9713   0.98554079 
42900000    304.58128    302.87989   -220.18003   -6.1567806   -8899.1469   -8844.3711    1451.7304     1443.621   -7447.4165     -7400.75   0.98554079 
43000000    304.63037    303.01549   -224.70242   -69.261648    -8742.764   -8839.5164    1451.9644    1444.2673   -7290.7997   -7395.2491   0.98554079 
43100000    310.06857    303.25468   -267.62284   -33.014248   -8880.8533   -8841.2818    1477.8845    1445.4074   -7402.9688   -7395.8743   0.98554079 
43200000    301.93313    303.17365   -47.224767   -44.770891   -8856.5508   -8844.0878    1439.1085    1445.0212   -7417.4423   -7399.0667   0.98554079 
43300000    308.07845    303.17573    6.6625457   -14.178335   -8742.9238   -8836.1755     1468.399    1445.0311   -7274.5248   -7391.1444   0.98554079 
43400000    298.44185    303.35666   -436.89638   -62.149302   -8836.3531   -8837.9803     1422.468    1445.8935   -7413.8851   -7392.0868   0.98554079 
43500000     302.3888    303.07552   -143.05892   -45.231343   -8883.7958   -8835.6672    1441.2804    1444.5535   -7442.5154   -7391.1138   0.98554079 
43600000    306.87416    303.17037    455.10317   -29.823801    -8880.797   -8843.0987     1462.659    1445.0055    -7418.138   -7398.0931   0.98554079 
43700000    297.45654    303.06416   -473.21505   -42.985297    -8834.574   -8842.8784    1417.7716    1444.4993   -7416.8024   -7398.3791   0.98554079 
43800000    301.05507    303.04074   -437.83633   -36.470528   -8872.1905   -8841.5416    1434.9234    1444.3877   -7437.2671   -7397.1539   0.98554079 
43900000    301.44344      303.163   -798.04623   -50.884861   -8826.3449   -8837.0803    1436.7745    1444.9704   -7389.5705   -7392.1099   0.98554079 
44000000    297.07957    303.02393    -723.3421   -21.726556   -8827.1008   -8842.5306    1415.9749    1444.3076   -7411.1259   -7398.2231   0.98554079 
44100000    300.76509    303.06249   -597.79211   -67.149302   -8824.1745   -8839.1159    1433.5413    1444.4914   -7390.6332   -7394.6246   0.98554079 
44200000    297.83909     303.3523   -113.35556    -66.15014   -8838.5571   -8832.2144     1419.595    1445.8727   -7418.9621   -7386.3417   0.98554079 
44300000    302.36301      303.008    125.82316   -69.533881   -8823.2695   -8841.2535    1441.1574    1444.2317    -7382.112   -7397.0218   0.98554079 
44400000     296.8166    303.04206    293.82364   -18.482299   -8871.1037   -8835.4629    1414.7215     1444.394   -7456.3823   -7391.0689   0.98554079 
44500000    303.77243    303.16259   -996.97015   -2.3487196   -8894.4678   -8844.6433    1447.8752    1444.9685   -7446.5926   -7399.6749   0.98554079 
44600000    314.59463     303.2077   -632.49328    -53.75922   -8891.7906   -8829.7321    1499.4572    1445.1835   -7392.3334   -7384.5486   0.98554079 
44700000    310.99932    303.43222   -753.43632   -26.528122   -8858.1755   -8839.6504    1482.3208    1446.2536   -7375.8547   -7393.3968   0.98554079 
44800000    298.96254    303.41949    8.2361785   -34.502747   -8803.2503   -8836.8761    1424.9497     1446.193   -7378.3006   -7390.6831   0.98554079 
44900000    300.21922    303.03381   -36.823749    -36.04479   -8810.8597   -8844.6436    1430.9394    1444.3547   -7379.9202   -7400.2889   0.98554079 
45000000    315.89851    303.13057   -241.45527   -25.711168   -8806.4614   -8851.4143    1505.6719    1444.8159   -7300.7895   -7406.5985   0.98554079 
45100000    296.32608    303.04501   -474.69205   -17.586216    -8903.056   -8838.7647    1412.3835    1444.4081   -7490.6725   -7394.3566   0.98554079 
45200000    296.97713     303.0329    284.32285   -42.485042   -8806.0428   -8837.6745    1415.4866    1444.3503   -7390.5561   -7393.3241   0.98554079 
45300000    295.12943    302.95277    -384.4766    -37.02939   -8860.7272    -8844.881    1406.6799    1443.9684   -7454.0473   -7400.9126   0.98554079 
45400000    295.05293    302.86349     281.7096     -48.7614    -8796.879   -8841.3099    1406.3153    1443.5429   -7390.5637   -7397.7671   0.98554079 
45500000    305.18994    302.97349   -21.788309   -23.310057   -8794.4797   -8843.0368    1454.6315    1444.0672   -7339.8482   -7398.9696   0.98554079 
45600000    290.08642    303.02344   -250.38155    9.3753691   -8881.5961   -8850.1285    1382.6433    1444.3053   -7498.9528   -7405.8232   0.98554079 
45700000    301.31898    302.95472    -758.7632   -35.892099   -8908.0247   -8847.3195    1436.1813    1443.9777   -7471.8435   -7403.3418   0.98554079 
45800000     307.5325    303.10408    221.79312   -43.347047    -8784.102   -8838.1781    1465.7968    1444.6896   -7318.3051   -7393.4885   0.98554079 
45900000    302.94349    303.29533   -35.352702   -12.034673   -8833.9345   -8835.7581    1443.9242    1445.6012   -7390.0103   -7390.1569   0.98554079 
46000000     303.5432    303.19644   -246.54737   -30.641166   -8772.3015   -8840.1676    1446.7826    1445.1298   -7325.5189   -7395.0378   0.98554079 
46100000    301.23381    303.14157    132.54753   -17.607734   -8807.3661   -8845.2272    1435.7753    1444.8683   -7371.5908   -7400.3589   0.98554079 
46200000    310.53556    303.16042    44.510473   -23.322201   -8822.6137   -8836.3059    1480.1104    1444.9581   -7342.5034   -7391.3478   0.98554079 
46300000    292.96752    303.15066    460.34631   -57.184755   -8775.6388   -8836.2003    1396.3756    1444.9116   -7379.2632   -7391.2887   0.98554079 
46400000    296.93537    303.15127       24.029   -60.562492   -8841.8666   -8844.4342    1415.2876    1444.9145    -7426.579   -7399.5197   0.98554079 
46500000    301.08563    303.25345     483.3705   -32.380914    -8884.519   -8836.6521     1435.069    1445.4015     -7449.45   -7391.2506   0.98554079 
46600000    297.33787    303.18168     626.3414   -56.740691   -8825.0364   -8843.5033     1417.206    1445.0594   -7407.8304   -7398.4438   0.98554079 
46700000    295.21464    303.21209    415.29517   -40.175825   -8888.6396   -8843.9245    1407.0861    1445.2044   -7481.5535   -7398.7201   0.98554079 
46800000    311.58225    303.26805   -262.95904   -17.034614   -8847.4015    -8837.345    1485.0992    1445.4711   -7362.3023   -7391.8739   0.98554079 
46900000    304.61078    303.32076   -189.61147    2.9225333    -8906.605   -8837.8131     1451.871    1445.7224    -7454.734   -7392.0907   0.98554079 
47000000    308.94891    303.03486    174.20907   -8.6576491   -8769.6325   -8857.0391    1472.5479    1444.3597   -7297.0846   -7412.6795   0.98554079 
47100000    303.66336    303.29865   -607.62604    -40.23525   -8769.4403   -8838.8451    1447.3553     1445.617    -7322.085   -7393.2281   0.98554079 
47200000    298.93102     303.1679    796.82374   -23.505346   -8802.9995    -8842.865    1424.7995    1444.9938      -7378.2   -7397.8712   0.98554079 
47300000    300.65451    303.20492   -278.33449   -36.829347   -8800.9974   -8839.9042    1433.0142    1445.1702   -7367.9832    -7394.734   0.98554079 
47400000    299.15794    303.22398    688.20445    -40.04322   -8797.9473    -8848.059     1425.881    1445.2611   -7372.0663   -7402.7979   0.98554079 
47500000     299.8499    303.32592   -916.93401   -21.749406   -8897.5021   -8843.2862    1429.1791     1445.747    -7468.323   -7397.5393   0.98554079 
47600000    303.60158    303.23163    31.452668   -37.771795   -8800.5965   -8829.0654    1447.0608    1445.2976   -7353.5356   -7383.7678   0.98554079 
47700000    306.50775    303.04693    119.84085   -35.382426   -8821.6952   -8837.0462    1460.9125    1444.4172   -7360.7827    -7392.629   0.98554079 
47800000    298.60196    303.15305   -14.828002   -27.653475   -8795.7247   -8835.8225    1423.2311     1444.923   -7372.4937   -7390.8995   0.98554079 
47900000    301.88655    302.92044     28.11269   -46.113436   -8850.6213   -8842.3792    1438.8865    1443.8143   -7411.7348   -7398.5648   0.98554079 
48000000    305.50421    303.34331    7.5600503   -33.580924   -8781.8818   -8840.9786    1456.1294    1445.8298   -7325.7524   -7395.1488   0.98554079 
48100000    307.57954    303.23352   -370.00111   -19.447518   -8813.4119   -8840.2943     1466.021    1445.3066   -7347.3909   -7394.9877   0.98554079 
48200000    305.63796    303.14886   -20.227161   -17.035219   -8868.5619   -8842.2068    1456.7669     1444.903   -7411.7951   -7397.3038   0.98554079 
48300000    308.39491    302.89976   -631.60672   -29.903835   -8832.3434   -8843.5945    1469.9074    1443.7158   -7362.4361   -7399.8787   0.98554079 
48400000    297.01209    303.11782      11.2625   -49.013398   -8780.3991   -8843.0775    1415.6533    1444.7551   -7364.7459   -7398.3224   0.98554079 
48500000    298.72157    303.12572   -361.75526   -39.713043   -8836.1673   -8837.9082    1423.8012    1444.7927   -7412.3661   -7393.1155   0.98554079 
48600000    298.89785    303.36327    596.73363   -37.026855    -8855.002   -8841.6268    1424.6414     1445.925   -7430.3606   -7395.7018   0.98554079 
48700000    296.06593    303.23444   -176.22608   -25.231984   -8897.8728   -8841.9815    1411.1436    1445.3109   -7486.7292   -7396.6706   0.98554079 
48800000     296.1926    303.17919    313.83533   -32.850388   -8880.3793    -8838.694    1411.7473    1445.0476    -7468.632   -7393.6464   0.98554079 
48900000    308.61102    303.11882    172.64436   -21.084524    -8894.765   -8845.6003    1470.9374    1444.7598   -7423.8276   -7400.8404   0.98554079 
49000000     309.9084    303.14345    39.147904   -51.924049   -8889.8582   -8837.8115    1477.1212    1444.8772    -7412.737   -7392.9343   0.98554079 
49100000    296.66067    303.25779   -196.96606   -26.059654   -8881.4402   -8840.0166    1413.9783    1445.4222    -7467.462   -7394.5944   0.98554079 
49200000    297.26852    303.32571   -256.14329   -50.703764    -8927.875   -8837.3908    1416.8755     1445.746   -7510.9995   -7391.6448   0.98554079 
49300000    309.75184    303.33581    32.928262   -7.9558849   -8873.6573   -8838.3697    1476.3749    1445.7941   -7397.2823   -7392.5756   0.98554079 
49400000    301.85973    303.17476    81.431989   -36.653868   -8858.3211   -8843.9542    1438.7586    1445.0265   -7419.5625   -7398.9277   0.98554079 
49500000    302.66587    303.05288   -336.00665   -15.234292   -8896.4464   -8845.7897     1442.601    1444.4456   -7453.8454   -7401.3442   0.98554079 
49600000    314.23075    303.25347    6.8692883    -15.63208    -8883.279   -8832.4992    1497.7228    1445.4016   -7385.5562   -7387.0975   0.98554079 
49700000    313.96278    303.37916   -1.2653908    -32.09352   -8850.3442   -8831.3451    1496.4456    1446.0007   -7353.8987   -7385.3444   0.98554079 
49800000    309.60069    303.05458    -348.3158   -26.569595   -8888.0395   -8839.9408    1475.6545    1444.4537    -7412.385   -7395.4871   0.98554079 
49900000    296.11683    303.03284    229.30336   -43.453414   -8738.4968   -8839.4504    1411.3862      1444.35   -7327.1106   -7395.1004   0.98554079 
50000000    297.82957    303.02191    216.00744   -38.202991   -8861.2048   -8840.5107    1419.5496    1444.2979   -7441.6552   -7396.2128   0.98554079 
Loop time of 294599 on 12 procs for 50000000 steps with 2400 atoms

Performance: 14.664 ns/day, 1.637 hours/ns, 169.722 timesteps/s
100.0% CPU use with 12 MPI tasks x no OpenMP threads

MPI task timing breakdown:
Section |  min time  |  avg time  |  max time  |%varavg| %total
---------------------------------------------------------------
Pair    | 1.0432e+05 | 1.1359e+05 | 1.2092e+05 |1643.7 | 38.56
Bond    | 16.591     | 24.98      | 32.418     |  92.4 |  0.01
Kspace  | 1.4253e+05 | 1.4981e+05 | 1.5894e+05 |1404.0 | 50.85
Neigh   | 8476.6     | 8492.4     | 8509.5     |  12.5 |  2.88
Comm    | 11505      | 11637      | 11954      | 110.4 |  3.95
Output  | 148.37     | 180.16     | 192.19     | 104.2 |  0.06
Modify  | 9935.8     | 10081      | 10289      | 118.0 |  3.42
Other   |            | 782.1      |            |       |  0.27

Nlocal:    200 ave 215 max 178 min
Histogram: 1 0 1 1 1 2 1 2 1 2
Nghost:    4748.25 ave 4809 max 4687 min
Histogram: 2 0 1 2 1 1 2 0 1 2
Neighs:    71485.9 ave 81782 max 62994 min
Histogram: 2 1 3 0 0 2 0 2 0 2

Total # of neighbors = 857831
Ave neighs/atom = 357.43
Ave special neighs/atom = 2
Neighbor list builds = 2281132
Dangerous builds = 0
 All done! 

Please see the log.cite file for references relevant to this simulation

Total wall time: 81:49:59
