LAMMPS (16 Feb 2016)
# Methane
units		real
dimension	3
atom_style	atomic
boundary	p p p

# Create the simulation box
lattice		fcc 3
Lattice spacing in x,y,z = 3 3 3
region		box block 0 10 0 10 0 10
create_box	1 box
Created orthogonal box = (0 0 0) to (30 30 30)
  2 by 3 by 4 MPI processor grid
create_atoms	1 box
Created 4000 atoms

# Properties of methane
mass		1 16

pair_style	lj/cut 14
pair_coeff	1 1 1.0 0.294 3.73


# System conditions
variable Temp  equal	283.13
variable Pres  equal 	1.00

# For lammps
neighbor	2.0 bin
neigh_modify	every 1 delay 0 check no

# Initial velocity
velocity	all create ${Temp} 62909
velocity	all create 283.13 62909

# Equilibrate the system
fix integrate_1 all npt temp ${Temp} ${Temp} 100.0 iso ${Pres} ${Pres} 1000.0
fix integrate_1 all npt temp 283.13 ${Temp} 100.0 iso ${Pres} ${Pres} 1000.0
fix integrate_1 all npt temp 283.13 283.13 100.0 iso ${Pres} ${Pres} 1000.0
fix integrate_1 all npt temp 283.13 283.13 100.0 iso 1 ${Pres} 1000.0
fix integrate_1 all npt temp 283.13 283.13 100.0 iso 1 1 1000.0
thermo 100
run 200000
Neighbor list info ...
  1 neighbor list requests
  update every 1 steps, delay 0 steps, check no
  max neighbors/atom: 2000, page size: 100000
  master list distance cutoff = 5.73
  ghost atom cutoff = 5.73
  binsize = 2.865 -> bins = 11 11 11
Memory usage per processor = 2.03725 Mbytes
Step Temp E_pair E_mol TotEng Press Volume 
       0       283.13   -0.7732371            0    3374.2098    5710.0785        27000 
     100     281.1545   -4.0104695            0    3347.4241     5571.975    27397.271 
     200     286.6917    -71.60361            0    3345.8358    5413.1178    28260.309 
     300    288.14094   -90.386565            0    3344.3282     5287.598    29057.919 
     400    277.83515   -66.872156            0    3244.9948    5014.6114    29893.648 
     500    276.33488   -86.057789            0    3207.9256     4742.904    30665.252 
     600     282.7043   -89.591847            0    3280.3167    4719.1439    31397.911 
     700    282.84198   -89.531579            0    3282.0182     4682.905    32133.108 
     800    282.60178   -81.692433            0    3286.9941    4538.8437    32871.209 
     900     283.9322   -83.727624            0    3300.8178    4426.2811    33615.656 
    1000    284.88952   -92.980385            0    3302.9766     4371.993    34367.316 
    1100    286.72281   -90.309547            0    3327.5008    4336.9039    35127.847 
    1200    289.04881   -70.680723            0    3374.8561    4361.1754    35902.017 
    1300    283.00976   -88.023269            0    3285.5265    4204.7245    36688.289 
    1400    276.26522   -86.018971            0    3207.1341    3960.0533    37471.761 
    1500    281.95454   -75.563336            0     3285.408    3876.5913    38258.411 
    1600    282.56246   -88.722588            0    3279.4953    3859.4821    39066.253 
    1700    281.40565   -77.328703            0    3277.0996    3711.2212    39887.196 
    1800    283.76712   -78.406645            0     3304.171    3740.7454    40719.034 
    1900    284.60353    -83.74834            0    3308.7996    3638.6504    41566.253 
    2000    283.24947   -78.996623            0    3297.4105    3493.7873    42427.572 
    2100    285.88185   -76.326571            0    3331.4592    3535.8624    43301.705 
    2200    288.36707   -84.608731            0    3352.8016    3440.1808    44195.135 
    2300    280.32439   -80.460869            0    3261.0785    3277.3958    45102.412 
    2400    271.76217   -87.677028            0    3151.7985    3151.4099    46006.448 
    2500    279.64651   -87.651608            0    3245.8073    3163.6071    46913.723 
    2600    281.60446   -77.857387            0    3278.9408    3171.1002    47849.994 
    2700     283.2629   -67.359381            0    3309.2079    3075.7603    48810.691 
    2800    284.70895   -77.921093            0    3315.8834     3036.979    49791.893 
    2900    282.35338   -72.017957            0    3293.7076    3004.9473    50788.849 
    3000    284.24305   -77.561472            0    3310.6894    2910.9857    51798.136 
    3100     287.0531    -76.03601            0    3345.7114    2884.5529    52828.664 
    3200     283.5059   -70.968622            0    3308.4953    2825.1636    53880.877 
    3300    277.71206   -68.941532            0    3241.4582    2714.7736    54941.482 
    3400    280.43002   -71.435915            0    3271.3627    2652.8641    56007.565 
    3500    284.25103   -66.549275            0    3321.7968    2657.3972    57102.103 
    3600    283.88608   -66.320185            0    3317.6755    2623.2268    58224.121 
    3700    282.54731   -56.598885            0    3311.4384    2537.2304     59363.45 
    3800    285.73173   -59.684179            0    3346.3121    2548.4851    60519.904 
    3900     286.9078   -62.273429            0    3357.7419    2515.8743    61704.208 
    4000    281.38724   -62.469084            0    3291.7398    2373.5843    62910.172 
    4100    274.10908   -61.918482            0    3205.5328    2322.2039    64115.597 
    4200    280.41619   -65.774901            0    3276.8588    2277.7701    65327.597 
    4300    282.89195     -61.6389            0    3310.5065    2277.1575    66578.364 
    4400     282.8561   -52.385589            0    3319.3325    2225.8497    67861.064 
    4500     283.4067   -50.342961            0    3327.9384    2206.5138    69166.583 
    4600    284.66958   -49.202459            0    3344.1328    2178.5348    70495.725 
    4700    287.17084   -49.477538            0    3373.6733    2124.9025    71851.721 
    4800    290.10819   -60.204962            0      3397.96    2133.9602    73238.427 
    4900    281.29733   -53.089923            0    3300.0473     2033.557    74650.701 
    5000    274.05694   -54.787103            0    3212.0427    1930.9741     76055.62 
    5100    279.59431   -53.025214            0    3279.8115    1943.0975    77466.883 
    5200    281.82424   -59.326894            0    3300.0911    1898.2497    78921.456 
    5300    283.01054   -48.780403            0    3324.7786    1873.3887    80410.665 
    5400    283.81612   -45.885514            0    3337.2762    1866.7245     81933.37 
    5500    283.07201   -41.933972            0    3332.3578    1812.0852    83483.844 
    5600    286.81596   -52.589145            0    3366.3315    1808.2304    85059.033 
    5700    288.60763   -45.651992            0    3394.6258    1786.7268    86675.351 
    5800    279.88263   -43.266832            0    3293.0068     1704.312    88320.552 
    5900    271.88031   -49.158554            0    3191.7253     1624.673     89955.38 
    6000    279.96953   -43.618687            0    3293.6907     1646.059    91597.662 
    6100      282.447   -48.064643            0    3318.7768    1637.2585    93298.802 
    6200    284.04518   -42.141501            0    3343.7507    1611.1774    95044.363 
    6300    284.87052   -52.693399            0    3343.0371     1559.255    96826.479 
    6400    282.57448   -47.784591            0    3320.5765    1557.7625    98633.705 
    6500    283.15035   -43.498905            0    3331.7267    1516.9566    100464.34 
    6600    286.79056   -44.646221            0    3373.9716    1489.7415    102334.85 
    6700    283.64398   -39.879402            0    3341.2304     1466.523    104247.12 
    6800    277.56991   -41.306093            0    3267.3992    1404.7818     106174.7 
    6900    277.90179   -42.524269            0    3270.1371    1391.0368    108106.98 
    7000    284.06653   -47.448513            0    3338.6982    1391.4223    110085.25 
    7100    283.92548   -44.224696            0    3340.2407    1364.7484    112123.56 
    7200    283.05805   -43.620311            0    3330.5051    1340.9732    114198.02 
    7300    284.53329   -38.528195            0    3353.1824    1310.6583    116301.49 
    7400    286.84195   -38.382311            0    3380.8481    1305.8887    118452.37 
    7500    284.58307   -41.731525            0    3350.5725    1269.4969     120646.6 
    7600    277.76435   -40.636053            0    3270.3871    1217.3002    122858.82 
    7700    278.72914   -39.591569            0     3282.932    1193.4297    125073.26 
    7800     283.8948    -41.41707            0    3342.6826    1202.7559    127342.55 
    7900    283.24498   -35.630588            0     3340.723    1173.3549    129679.66 
    8000    283.22314   -38.988011            0    3337.1052    1150.8142    132054.45 
    8100    285.65145   -37.189813            0    3367.8496    1150.6007    134467.12 
    8200    287.94299   -38.209022            0    3394.1461    1141.7144    136937.96 
    8300    283.24806   -36.865908            0    3339.5244    1091.7802    139457.98 
    8400    274.64503   -37.565351            0    3236.2746    1041.1488    141979.48 
    8500    278.88585    -31.71321            0    3292.6784    1037.8275    144504.52 
    8600    282.28915   -30.474658            0    3334.4852    1032.7108    147106.85 
    8700    283.36421   -31.556826            0    3346.2181    1015.0589    149780.73 
    8800    283.53124   -24.423881            0     3355.342    1002.0956    152506.85 
    8900    284.68628   -27.521461            0    3366.0128    992.72835    155280.12 
    9000    287.16917   -28.989166            0    3394.1418    988.30466    158106.83 
    9100     288.8552   -26.931477            0    3416.2974    970.45177    161003.01 
    9200    281.15104   -32.469073            0    3318.9242    919.29332    163942.22 
    9300    274.08866   -35.919356            0    3231.2886    885.61456    166864.06 
    9400    279.25081   -29.115189            0    3299.6269    887.04446    169803.82 
    9500     280.8642   -23.995362            0    3323.9788    878.31594    172834.56 
    9600    283.63992   -26.478799            0    3354.5827    870.00342    175944.85 
    9700    284.72131   -33.145373            0    3360.8065    862.15389    179121.84 
    9800    282.99271   -23.579818            0    3349.7667    836.11978    182354.49 
    9900     286.6359    -30.83592            0    3385.9384    840.51679    185634.36 
   10000    288.20786   -30.646456            0     3404.866    825.46245    188999.09 
   10100    279.68747   -21.823083            0    3312.1241    789.70982    192420.93 
   10200    272.13449   -27.632938            0    3216.2808    752.34825    195817.74 
   10300    279.88546   -20.940764            0    3315.3665    760.30511    199235.78 
   10400    282.37619   -23.822959            0    3342.1744    750.61833    202779.94 
   10500    284.46711   -26.124851            0    3364.7969    744.40223    206415.22 
   10600    284.01308   -20.826163            0    3364.6834     734.7706    210122.12 
   10700    283.36882   -20.102679            0    3357.7272    716.48697     213883.5 
   10800    285.47709   -20.493862            0    3382.4671    711.34244    217706.19 
   10900    287.56449   -22.532976            0    3405.3103    702.09552    221615.51 
   11000    283.09206   -26.048205            0    3348.4825     675.5922       225595 
   11100    273.82019   -23.778481            0    3240.2292    646.70201    229578.52 
   11200    278.56328    -19.83551            0     3300.711     646.5821    233561.98 
   11300    281.85774    -19.35505            0    3340.4623    646.16184    237672.39 
   11400    283.59396   -24.405461            0    3356.1081    635.25813    241898.06 
   11500    283.76258    -19.40755            0     3363.116    623.68234     246205.5 
   11600    284.21282    -19.35279            0    3368.5377    620.32035    250581.89 
   11700    286.56863   -22.285836            0    3393.6866    610.03464    255039.82 
   11800    288.00438   -20.094573            0    3412.9924    600.58473    259600.91 
   11900    282.22125   -22.813624            0    3341.3369    576.70415     264238.6 
   12000    274.19491   -21.374116            0    3247.1004    552.57664    268864.81 
   12100     280.0474   -17.487402            0    3320.7503    554.71049    273512.64 
   12200    282.43403   -22.068983            0    3344.6179    551.32447    278309.61 
   12300    282.97568   -17.970809            0    3355.1728    541.50659    283225.03 
   12400    284.13723   -19.089174            0    3367.9004    535.08269    288230.89 
   12500    284.69369   -21.219402            0    3372.4032    525.41575    293328.87 
   12600    286.50147   -19.096831            0    3396.0751    518.99874    298517.46 
   12700    288.14094   -15.941493            0    3418.7732     513.1071    303819.59 
   12800    281.83366   -19.480396            0    3340.0499    497.69083    309211.85 
   12900    274.01729   -21.035319            0    3245.3218    470.99863    314589.64 
   13000    280.64853   -19.544704            0    3325.8585    475.58529    319986.51 
   13100    282.38475   -22.361958            0    3343.7375    470.97209    325561.83 
   13200     283.0717   -18.088457            0    3356.1996     461.3917    331275.41 
   13300     284.2345   -16.364208            0    3371.7848    459.29846    337093.97 
   13400    284.10228    -14.40454            0    3372.1684    450.94622    343022.31 
   13500    285.76241   -15.284341            0    3391.0778    446.17344    349047.47 
   13600    288.38661   -12.943423            0    3424.6998    439.72672    355207.43 
   13700    282.89729   -16.373914            0    3355.8352    423.59188    361484.84 
   13800    273.61403   -15.116444            0    3246.4338    402.69721    367747.11 
   13900    279.45749   -10.801172            0    3320.4046    406.13196    374011.95 
   14000    282.29806   -16.895265            0    3348.1709    403.44901    380482.96 
   14100    283.32908   -15.767082            0     3361.589    398.01757    387122.16 
   14200    284.28883   -15.503873            0    3373.2927    391.98738    393888.34 
   14300    284.16555   -11.781366            0    3375.5457    384.37289    400773.09 
   14400    285.30806   -12.907623            0    3388.0385    380.10144    407773.52 
   14500    287.81664   -15.017282            0    3415.8317    376.29365    414918.09 
   14600    284.74349   -11.490202            0    3382.7261    368.88479    422208.34 
   14700    276.47749   -14.856625            0    3280.8268    350.29331    429536.09 
   14800    277.61684   -12.994207            0    3296.2705    343.90292    436843.75 
   14900    282.76398   -13.450027            0    3357.1699    344.96415     444336.6 
   15000    282.83897   -13.985446            0    3357.5284    338.77673    452047.17 
   15100    283.61842   -15.056039            0    3365.7491    333.63045    459890.93 
   15200    285.20496   -14.925139            0     3384.792    330.97976    467881.76 
   15300    286.21292   -11.939275            0     3399.793    325.06896    476032.55 
   15400     287.7212   -11.905032            0    3417.8063    321.93929    484346.39 
   15500    284.72289   -12.703104            0    3381.2676     314.0821    492808.01 
   15600     277.3374   -13.962317            0    3291.9714    300.85832    501311.92 
   15700    279.22126   -14.136821            0    3314.2531     297.3876    509821.64 
   15800    283.70483   -13.381302            0    3368.4538    296.94009    518555.33 
   15900    282.33391   -11.807652            0    3353.6857    290.55302    527522.31 
   16000    282.67769   -12.072034            0    3357.5193    286.61907    536612.66 
   16100    286.06178   -12.080331            0    3397.8503    283.71352     545871.4 
   16200    286.27121   -12.561395            0    3399.8657    279.52783    555352.96 
   16300    280.59726   -11.607452            0    3333.1846    271.39558    564969.05 
   16400    275.77867   -12.827714            0    3274.5256    260.26985     574581.1 
   16500    281.78034   -11.121483            0    3347.7733    261.24776    584300.24 
   16600    283.76541   -10.790501            0    3371.7668     258.9106    594331.97 
   16700    283.40929   -12.916754            0    3365.3955    254.69552    604582.94 
   16800    283.72335   -12.453818            0    3369.6022    250.64262    614981.02 
   16900    286.96039   -11.517639            0    3409.1246    248.40188    625568.31 
   17000    287.06384   -10.107576            0    3411.7678    244.11545    636410.64 
   17100     278.9973   -13.441901            0    3312.2783    234.48169    647386.73 
   17200    273.85435   -11.842182            0    3252.5727     226.8052    658292.56 
   17300    280.51844   -8.4218115            0    3335.4307    227.17917     669329.8 
   17400    282.72082   -12.037013            0    3358.0685    225.98715    680734.36 
   17500    283.61622   -7.3376514            0    3373.4412     224.5407    692412.31 
   17600    284.58181   -13.034918            0    3379.2541    219.79466    704304.91 
   17700     284.6733   -11.184426            0    3382.1951    215.95938    716390.96 
   17800    287.49679   -10.465707            0    3416.5706    214.37532    728686.29 
   17900    287.06883   -10.923981            0    3411.0109    210.84414    741264.35 
   18000    278.16566   -9.5194177            0    3306.2874    200.66165    753975.64 
   18100     274.8512   -10.713327            0    3265.5843    194.75154    766602.52 
   18200    282.07477   -10.346384            0     3352.058    197.59581    779437.37 
   18300    282.60001   -9.1608481            0    3359.5046    195.33732    792696.05 
   18400    283.75663   -10.260618            0     3372.192    191.14108    806224.21 
   18500     284.3773   -7.2007758            0    3382.6505    188.76419    819992.11 
   18600    285.18702   -11.046365            0    3388.4568    186.91298    834001.58 
   18700    287.14494    -10.94091            0    3411.9013    184.09021     848268.6 
   18800    286.78722   -9.9656927            0    3408.6123    180.84199     862830.4 
   18900    279.68714   -8.6775609            0    3325.2657    173.47766    877562.32 
   19000    275.95397   -7.9777412            0    3281.4651    168.11534    892258.66 
   19100    283.10666   -7.8229745            0    3366.8819    170.16394     907166.8 
   19200    283.18588   -8.5586068            0    3367.0905    166.92291    922567.68 
   19300    282.74747    -9.414901            0    3361.0082    164.09835    938241.73 
   19400    284.54697   -7.9540453            0    3383.9196    161.99617    954151.95 
   19500    286.77579   -8.1106032            0    3410.3312    160.34093       970402 
   19600    285.92842   -7.9687185            0    3400.3722    157.30933    986986.92 
   19700    281.80613   -8.0738886            0    3351.1282    152.87229    1003764.6 
   19800    279.51376   -7.9800208            0    3323.8965    149.22196    1020631.3 
   19900    284.00108   -7.5231793            0    3377.8433    148.53149    1037751.6 
   20000    284.42081   -5.6058999            0    3384.7639    146.62555    1055346.4 
   20100    281.90337   -5.2400488            0    3355.1212    142.62654    1073233.8 
   20200    284.34764   -7.4962635            0    3382.0013    141.73001      1091309 
   20300     288.5829   -7.7158889            0    3432.2672    141.15142    1109853.7 
   20400     282.5408   -8.0701261            0    3359.8895    135.99522    1128785.3 
   20500    277.93161   -7.6756606            0    3305.3413    131.71897    1147704.5 
   20600    286.01055   -6.2651746            0    3403.0548    133.20216    1166817.1 
   20700    284.81961   -9.4325431            0    3385.6911      130.525    1186593.1 
   20800    279.79007    -5.486516            0    3329.6837    125.84456    1206623.5 
   20900    281.65524   -9.3297264            0    3348.0738     125.1684    1226751.5 
   21000     285.2292   -6.7538059            0    3393.2523    124.15043    1247351.3 
   21100    282.81077   -6.0721674            0    3365.1055    121.06865    1268429.9 
   21200    280.87605   -5.6116546            0    3342.5037    118.59208    1289715.1 
   21300    287.13352    -4.651597            0    3418.0545    118.92852    1311296.6 
   21400    287.25065   -5.5518817            0    3418.5503    117.27869    1333573.1 
   21500    280.96577   -5.2285024            0    3343.9564     112.5556    1356136.1 
   21600    279.61382   -7.7899399            0    3325.2793    110.00131    1378690.8 
   21700    284.53457   -5.8309015            0     3385.895    110.85116    1401610.9 
   21800    283.40731   -5.1646349            0    3373.1241     108.1641    1425175.8 
   21900    281.19229   -7.7752234            0    3344.1098    105.37532    1449059.6 
   22000     282.3682   -5.3442836            0    3360.5579    104.23707    1473204.3 
   22100    285.86156   -4.9575186            0    3402.5865     103.7323    1497866.3 
   22200    283.48914   -4.6688401            0    3374.5953    101.20014    1523095.2 
   22300    280.57592   -4.1043773            0    3340.4334    98.607882    1548544.1 
   22400    281.38041   -6.8886208            0    3347.2389    97.051941    1574231.6 
   22500    283.98718    -5.959369            0    3379.2414    96.528821    1600430.7 
   22600    283.60274   -4.6071452            0     3376.011    94.788111    1627237.2 
   22700    282.08333   -3.9655079            0     3358.541    92.659338    1654424.5 
   22800    289.24114   -4.9355869            0    3442.8938    93.534119    1682022.3 
   22900    288.15325   -3.6582604            0    3431.2032    91.733615    1710528.4 
   23000    279.71595   -6.2538367            0    3328.0328    87.525569    1739286.5 
   23100    278.35909   -4.7202968            0    3313.3922    85.753665    1767885.5 
   23200    282.71328   -4.8147518            0    3365.2009    85.450455    1796970.6 
   23300    281.92616   -5.3520543            0    3355.2809    83.945749    1826830.9 
   23400    282.04818   -3.5999245            0    3358.4875    82.579316    1857170.7 
   23500    284.60547   -3.9351599            0    3388.6359    82.203046    1888047.6 
   23600    285.26725   -4.3162615            0    3396.1434    80.846403    1919600.5 
   23700    285.17886   -3.7780138            0     3395.628    79.488693    1951669.3 
   23800    287.03942   -3.5125789            0    3418.0718    78.707091    1984296.6 
   23900    283.35103   -6.3085909            0    3371.3092    76.251253    2017497.5 
   24000    277.89083   -3.1471097            0    3309.3837    73.885884    2050819.3 
   24100    282.50116   -3.0359985            0    3364.4511     73.70128    2084357.5 
   24200    284.67076   -3.9160354            0    3389.4332    73.287481      2118895 
   24300    282.00086   -4.7874074            0     3356.736    71.606878    2154152.1 
   24400    281.98959   -3.7799159            0    3357.6091    70.015484    2189714.6 
   24500    287.75676   -3.1617646            0    3426.9735    70.357404    2225975.7 
   24600    284.60879   -2.0931948            0    3390.5174    68.500392    2263228.2 
   24700    280.22517   -3.3889967            0    3336.9677    66.230382    2300720.3 
   24800    279.87325   -2.1845377            0    3333.9772    65.123355    2338390.2 
   24900    280.81818   -3.1360306            0    3344.2896      64.2738    2376676.3 
   25000    281.81526   -2.5414427            0    3356.7696    63.656675    2415732.1 
   25100    283.22216   -4.2040582            0    3371.8775    62.725212    2455560.8 
   25200    283.30371   -2.4938392            0    3374.5599    61.748326    2496134.3 
   25300    283.98824   -2.3840573            0    3382.8295    60.934498    2537358.8 
   25400    292.30971   -5.3236369            0     3479.084    61.632591      2579504 
   25500    286.07361   -3.2967862            0    3406.7748    59.397817    2622896.5 
   25600    278.92635   -2.8084063            0     3322.066    56.887847    2666185.9 
   25700    279.71223   -3.6645814            0    3330.5778    56.357069    2709442.9 
   25800    282.13191    -2.275886            0    3360.8096    55.759553    2753594.3 
   25900    281.90463   -3.4825675            0    3356.8937    54.757432    2798770.7 
   26000     282.1688     -1.79461            0    3361.7306    53.983371    2844682.3 
   26100    284.11346   -2.1504014            0    3384.5557    53.519239      2891394 
   26200     285.7322   -2.9233605            0    3403.0786    52.911735    2939079.7 
   26300    292.13826    -3.789796            0    3478.5741    53.155937    2987825.7 
   26400    287.80128   -3.0784013            0    3427.5875    51.533852    3037938.5 
   26500    278.14956   -1.8451261            0    3313.7698    49.031642    3087972.5 
   26600    278.75136   -2.4435098            0     3320.345    48.426564      3137714 
   26700    281.98622   -4.3133208            0    3357.0356    48.099816    3188474.8 
   26800    282.36644   -1.6286223            0    3364.2526    47.421972    3240550.9 
   26900    282.89111   -1.6363261            0     3370.499    46.751164    3293581.8 
   27000    284.43559   -2.6678288            0    3387.8782    46.271697    3347526.5 
   27100    289.27174   -2.2144577            0    3445.9797    46.299256    3402591.4 
   27200    290.82784   -2.2065279            0    3464.5368    45.746573    3459260.1 
   27300    277.82306   -2.8898766            0    3308.8331     43.06603    3516461.6 
   27400    276.20008   -2.1722611            0    3290.2043    42.061046    3572798.7 
   27500    281.09429   -3.5385176            0    3347.1784    42.192404    3629950.1 
   27600    283.45267   -2.5547896            0    3376.2745    41.879696    3688911.1 
   27700    283.72631   -2.4837085            0    3379.6075    41.182449    3749249.8 
   27800    283.85037   -3.2210466            0     3380.349    40.515689    3810516.8 
   27900    287.15195   -1.3874476            0    3421.5383    40.361597    3872790.6 
   28000    288.37898   -1.4229204            0    3436.1293    39.878776    3936589.2 
   28100    278.87255   -3.9163789            0    3320.3167    38.088444    4001191.4 
   28200    273.47466   -2.7067374            0    3257.1821    36.652317    4065057.8 
   28300    279.17157   -2.8696964            0    3324.9278    36.833456    4129455.7 
   28400     281.5968   -1.9069055            0       3354.8    36.526515    4195885.4 
   28500    284.47632   -2.7841936            0    3388.2474    36.307609    4264031.5 
   28600     284.3382   -2.2438332            0    3387.1413    35.849271    4333640.4 
   28700    282.86894   -2.2111231            0    3369.6601    34.988993    4404165.6 
   28800    285.18838   -3.0444436            0     3396.475    34.718065    4475520.5 
   28900    287.43058   -1.7679624            0    3424.4791     34.45417    4548479.3 
   29000    282.31516   -2.6388187            0    3362.6311    33.227542    4622753.7 
   29100    273.67458   -1.4487896            0    3260.8232      31.7166      4696861 
   29200    279.62519   -2.7313055            0    3330.4735    31.911559    4770834.5 
   29300    282.93884   -1.9499364            0    3370.7544    31.791289    4847279.1 
   29400    283.52089   -0.9782457            0    3378.6643    31.341782    4925785.1 
   29500    284.06301   -1.9571951            0    3384.1475    30.881971    5005599.3 
   29600    284.60103   -2.7908905            0    3389.7272    30.491653      5086635 
   29700    285.97735   -1.2712563            0    3407.6529    30.164982    5169016.2 
   29800     287.0868   -1.1043284            0    3421.0448    29.819246    5252997.3 
   29900    283.10242   -2.8678664            0    3371.7864     28.90286    5338285.8 
   30000    276.38681   -1.4200639            0    3293.1824    27.744651    5423653.7 
   30100    281.08875   -1.9473987            0    3348.7035    27.770354    5509225.4 
   30200    283.90192    -0.958462            0     3383.226    27.618501    5597395.1 
   30300    282.64861   -1.6159487            0    3367.6289    27.125458    5687618.8 
   30400     282.9003   -1.0492274            0    3371.1957    26.653275    5778925.2 
   30500    287.03499  -0.68776794            0    3420.8437    26.623269    5871849.5 
   30600    286.42804  -0.62206226            0    3413.6745    26.144725    5967061.7 
   30700    275.96211   -1.0221426            0    3288.5177     24.78254    6063057.1 
   30800    272.95743  -0.77062874            0    3252.9528     24.14148    6157744.5 
   30900    279.61065   -1.8972752            0    3331.1341    24.353333    6253804.7 
   31000    282.83193   -1.8828906            0    3369.5471    24.232645    6353189.5 
   31100    284.66152    -1.174952            0    3392.0642    24.015044    6455179.8 
   31200    283.84762  -0.55447454            0    3382.9828     23.68652    6558992.8 
   31300    283.05056   -2.1196759            0    3371.9164     23.13245      6663960 
   31400     286.1803   -1.9957885            0    3409.3476     23.04656    6770365.7 
   31500    286.89703   -1.0566777            0    3418.8303    22.726753    6879249.6 
   31600    280.25425   -1.0189666            0    3339.6844    21.853025      6989598 
   31700    273.31533  -0.98516945            0    3257.0044    20.988945    7099265.5 
   31800    281.20232   -1.7476412            0    3350.2569    21.256224    7209419.1 
   31900    283.05919   -1.1021937            0    3373.0368    21.070951    7323490.1 
   32000    283.64779   -1.0228974            0    3380.1323     20.78123    7440230.8 
   32100    284.14274   -1.1982533            0    3385.8569    20.482935    7558813.5 
   32200    284.88066   -1.1715223            0    3394.6799     20.20956    7679203.7 
   32300    286.66298   -1.0458579            0    3416.0512    20.014298    7801655.2 
   32400     286.5364   -1.0002735            0    3414.5879    19.687789    7926439.1 
   32500    280.69972   -1.2044025            0    3344.8091    18.979201      8052589 
   32600    276.45439   -1.0214234            0    3294.3866    18.406322    8178424.9 
   32700    283.24749   -1.6750066            0    3374.7085    18.569731    8305548.3 
   32800    283.72263  -0.69975004            0    3381.3476    18.315425      8436797 
   32900    282.21233  -0.82645528            0    3363.2177    17.931778    8570343.3 
   33000    283.89235  -0.53678154            0    3383.5337    17.762988    8705349.3 
   33100    287.94795  -0.69766876            0    3431.7166    17.733433    8843245.8 
   33200    283.97302  -0.57112077            0     3384.461    17.216154    8984180.9 
   33300    271.92626  -0.66602602            0    3240.7655    16.230574    9124738.4 
   33400    275.19834  -0.73827347            0    3279.6973    16.179597    9263438.3 
   33500    279.81517   -0.8382529            0    3334.6311    16.202527    9405826.6 
   33600    283.92695    -1.960327            0    3382.5225     16.22175      9552912 
   33700    285.00008   -1.7737053            0    3395.5012    16.017216      9703820 
   33800    282.96131   -1.0681811            0    3371.9041    15.650914    9856930.2 
   33900    282.13441  -0.91610611            0    3362.1993    15.349984     10011128 
   34000    286.42285  -0.69756406            0    3413.5371    15.342777     10167594 
   34100    285.98289    -1.576667            0    3407.4136    15.076963     10327980 
   34200    278.85696  -0.53939307            0    3323.5079    14.479342     10489929 
   34300    272.64751  -0.58533915            0    3249.4437    13.942941     10650571 
   34400    281.04267  -0.71880072            0    3349.3828      14.1569     10812257 
   34500    283.54622   -1.4162174            0    3378.5283    14.063723     10979950 
   34600    284.03811   -0.7451048            0    3385.0628    13.904766     11151679 
   34700    283.78916   -1.9556616            0    3380.8848    13.636731     11325878 
   34800    284.07885  -0.64366629            0    3385.6499    13.451699     11502204 
   34900    286.67009  -0.50005623            0    3416.6817     13.36732     11681402 
   35000    286.42015  -0.64938609            0    3413.5531    13.148279     11864311 
   35100    279.44976  -0.90025747            0    3330.2134    12.631033     12048985 
   35200    275.21968  -0.74397627            0    3279.9461    12.278282     12232369 
   35300    282.54142  -0.98763593            0    3366.9794    12.394793     12417674 
   35400    283.31522   -1.2101706            0    3375.9807    12.260073     12609187 
   35500    282.96132  -0.65256635            0    3372.3198    12.035643     12804262 
   35600    284.38364  -0.94182207            0     3388.985    11.909803     13001912 
   35700    287.05342   -1.0178994            0    3420.7333    11.845214     13203199 
   35800    286.81807   -1.0943962            0    3417.8514    11.654525     13408598 
   35900    279.95765  -0.78581395            0     3336.382    11.197114     13615894 
   36000    275.99413  -0.48082875            0    3289.4407    10.876574     13821765 
   36100    282.69856  -0.63200024            0    3369.2081    10.974976     14029666 
   36200    283.51982   -1.4445301            0    3378.1852    10.852946     14244288 
   36300    282.68405  -0.82264077            0    3368.8445    10.645776     14462783 
   36400    284.33223   -0.4740023            0    3388.8399    10.547491     14683875 
   36500    288.04407  -0.51558747            0    3433.0445     10.52339     14909402 
   36600    285.36447  -0.99924234            0    3400.6192    10.272633     15139787 
   36700    274.23079  -0.88826742            0    3268.0138    9.7178537     15369921 
   36800    276.68028  -0.49769874            0    3297.6031    9.6624486     15597025 
   36900     281.3239  -0.51067416            0    3352.9432    9.6803064     15829644 
   37000    283.38345   -1.0051223            0    3376.9991     9.612192     16069313 
   37100    284.45112  -0.75399272            0    3389.9772    9.4966384     16313974 
   37200    284.05467   -0.4305733            0    3385.5748    9.3423552     16562321 
   37300    284.82836  -0.65603343            0    3394.5719    9.2268889     16813557 
   37400    287.36966  -0.93551353            0    3424.5854    9.1792834     17069024 
   37500    284.29043  -0.49320257            0    3388.3225    8.9359832     17329122 
   37600    276.54476  -0.76467837            0    3295.7206    8.5619464     17589359 
   37700    278.69675  -0.86737918            0    3321.2702    8.5193244     17847891 
   37800    283.91674  -0.58298258            0    3383.7782    8.5376747     18113027 
   37900    282.99894  -0.43538703            0    3372.9854    8.3845654     18385614 
   38000    282.75817   -1.0082083            0    3369.5425    8.2571774     18661360 
   38100    285.68586   -0.6402628            0    3404.8093    8.2151575     18940809 
   38200    287.22129  -0.42688788            0    3423.3254    8.1376347     19226335 
   38300    281.69133  -0.91553063            0    3356.9181    7.8704333     19515906 
   38400     273.9052  -0.56828786            0    3264.4527    7.5336131     19803115 
   38500    280.19784  -0.46996441            0    3339.5609    7.5971898     20089580 
   38600    282.89905  -0.68358129            0    3371.5465    7.5750849     20385297 
   38700    283.52408  -0.46719915            0    3379.2134    7.4650235     20688299 
   38800    284.11838   -0.5241886            0    3386.2406    7.3708528     20995858 
   38900      285.438   -1.0792214            0    3401.4157    7.2987969     21307715 
   39000    287.43359  -0.39422067            0    3425.8887    7.2405329     21624865 
   39100    285.30982  -0.94825154            0    3400.0188    7.0810853     21947364 
   39200    277.44627  -0.94558958            0    3306.2859    6.7835684     22270320 
   39300    277.96012   -1.4132311            0    3311.9435    6.6986232     22590356 
   39400    283.83304   -1.0116068            0    3382.3519    6.7526516     22916989 
   39500    282.99555  -0.38728432            0     3372.993    6.6295182     23253267 
   39600    282.56776   -0.9676863            0    3367.3133     6.524121     23593561 
   39700    285.65405  -0.48430061            0    3404.5861    6.4999866     23938000 
   39800    287.76145  -0.57900424            0    3429.6121    6.4527301     24290148 
   39900    281.21569  -0.79626058            0    3351.3677    6.2136799     24647443 
   40000     272.9389  -0.68015034            0    3252.8223    5.9456724     25000001 
   40100    279.46142  -0.90612431            0    3330.3465    6.0115195     25350811 
   40200    282.22053  -0.37092995            0    3363.7709    5.9789631     25713040 
   40300    284.02611  -0.71402488            0    3384.9509     5.942026     26084701 
   40400    284.42793  -0.45915523            0    3389.9955    5.8545413     26462943 
   40500    283.98396  -0.99460134            0    3384.1679    5.7633345     26845599 
   40600    285.52073   -0.4747784            0    3403.0064    5.7109507     27232289 
   40700    286.73561  -0.91525587            0    3417.0476     5.653618     27625627 
   40800     282.2626  -0.38709799            0    3364.2563    5.4867136     28023845 
   40900    276.45556  -0.85144486            0    3294.5705    5.2981881     28420146 
   41000    282.08358  -0.42633349            0    3362.0831    5.3323336     28815961 
   41100    284.61926   -0.8462533            0    3391.8891    5.3046469     29224030 
   41200    282.46443  -0.37684537            0    3366.6725    5.1911818     29640603 
   41300    282.17723   -1.0396984            0    3362.5861     5.113358     30059421 
   41400    287.31482  -0.34623993            0     3424.521    5.1343856     30483872 
   41500    286.21922  -0.61611985            0    3411.1912     5.053149     30919136 
   41600    277.69224  -0.80809588            0    3309.3554    4.8226427     31356086 
   41700    271.23235  -0.65142346            0    3232.5085    4.6580634     31784579 
   41800    281.12463  -0.36558192            0    3350.7129    4.7538717     32213765 
   41900     284.1214  -0.88414385            0    3385.9167    4.7382706     32660863 
   42000    284.53614  -0.41006664            0    3391.3345    4.6798729     33119541 
   42100     283.0183  -0.48541788            0    3373.1661    4.5904277     33583207 
   42200    282.52111  -0.69138047            0    3367.0335    4.5193127     34048842 
   42300    285.79782  -0.68811947            0    3406.0961    4.5089612     34519446 
   42400    286.64124  -0.36216497            0    3416.4758    4.4739665     35000173 
   42500    280.31045     -0.36083            0    3341.0124    4.3030345     35485903 
   42600    273.47282  -0.83632446            0    3259.0306    4.1408491     35964675 
   42700    280.94285  -0.52153796            0    3348.3901    4.1992578     36441590 
   42800    283.08288   -0.3380194            0    3374.0833    4.1752032     36934924 
   42900    283.67435   -0.3223257            0    3381.1495    4.1396809     37439623 
   43000    284.14355  -0.33847947            0    3386.7263    4.0786647     37950827 
   43100    285.13571  -0.44612757            0    3398.4456    4.0376349     38467743 
   43200    286.67576   -0.9481927            0    3416.3012     4.004894     38991717 
   43300    284.77949  -0.30532237            0    3394.3401    3.9253021     39522764 
   43400    278.73055  -0.57534538            0    3321.9651    3.7903518     40053823 
   43500    279.10582   -1.6177505            0     3325.396    3.7449126     40579812 
   43600    285.10777  -0.29263765            0    3398.2659    3.7776758     41114990 
   43700    283.65216  -0.64254685            0    3380.5648    3.7080073     41665603 
   43800    281.14007  -0.66459017            0     3350.598     3.626908     42219652 
   43900    284.87749  -0.28594441            0    3395.5276    3.6281395     42775204 
   44000    288.22002  -0.50605312            0    3435.1514    3.6219953     43344674 
   44100    282.23521  -0.97179278            0    3363.3451    3.5002082     43923329 
   44200    278.20851  -0.31601259            0    3316.0016    3.4061517     44495018 
   44300    287.47912   -0.3664387            0    3426.4592    3.4749004     45066976 
   44400    286.03635  -0.46787748            0    3409.1596     3.421071     45660728 
   44500    279.56897  -0.39768443            0    3332.1369    3.2921842     46258061 
   44600    279.41306  -0.28290562            0    3330.3933    3.2492076     46847480 
   44700    285.20173  -0.67878389            0    3398.9999    3.2740393     47444178 
   44800     283.8494   -0.9050592            0    3382.6534    3.2172118     48057378 
   44900    281.13153  -0.30475399            0     3350.856    3.1464687     48673971 
   45000    284.18265  -0.29504653            0    3387.2358    3.1408502     49290693 
   45100    289.60476  -0.86646707            0    3451.2974    3.1591553     49922882 
   45200    283.47611  -0.93878817            0      3378.17    3.0535758     50568365 
   45300    279.47678  -0.31572485            0    3331.1199    2.9732898     51205326 
   45400    281.15856  -0.29103898            0     3351.192    2.9547219     51837989 
   45500    282.49478  -0.53586374            0    3366.8751    2.9319506     52480218 
   45600    281.88718  -0.51090808            0    3359.6574    2.8973752     53132025 
   45700    282.69591   -1.3091618            0    3368.4995    2.8617014     53789267 
   45800    285.22058  -0.27814351            0    3399.6252    2.8534123     54454703 
   45900    289.54317   -0.2725623            0    3451.1571    2.8610074     55133789 
   46000    290.29607  -0.46322919            0    3459.9412    2.8323245     55830075 
   46100    278.57951  -0.52560022            0    3320.2144     2.691237     56526174 
   46200    277.20592  -0.59263478            0    3303.7739    2.6396195     57198545 
   46300     282.4822   -1.2556276            0    3366.0055    2.6598327     57872172 
   46400    283.33959  -0.34767517            0    3377.1337    2.6354626     58565464 
   46500    282.94726  -0.42960122            0    3372.3751    2.6003717     59269840 
   46600     284.6437  -0.62330754            0    3392.4035    2.5848229     59979545 
   46700    289.79373  -0.39691262            0    3454.0195    2.6079529     60701755 
   46800    284.95185   -0.7381575            0    3395.9619    2.5260753     61439976 
   46900    275.31862  -0.34087764            0    3281.5285    2.4126495     62163943 
   47000    277.92256  -0.24553077            0    3312.6634    2.4083925     62867324 
   47100     281.4283  -0.24332394            0     3354.455    2.4113959     63581262 
   47200    283.92347  -0.28836339            0     3384.153      2.40495     64314851 
   47300    284.45956  -0.44244789            0    3390.3893    2.3815043     65063602 
   47400    283.61027  -0.79020077            0    3379.9177    2.3469143     65818990 
   47500    284.34677  -0.24615718            0    3389.2411    2.3339766     66575783 
   47600    285.86377   -0.8762689            0     3406.694    2.3122442     67339272 
   47700    283.63415  -0.49177461            0    3380.5009    2.2683348     68110078 
   47800    279.28044  -0.35454178            0    3328.7407     2.208842     68875981 
   47900     281.4692  -0.24465951            0    3354.9412    2.2021623     69632457 
   48000    286.62828  -0.21461074            0    3416.4688    2.2180283     70403389 
   48100    283.74514  -0.20803937            0    3382.1076    2.1713309     71194338 
   48200    279.22258  -0.22884344            0    3328.1767     2.113352     71980135 
   48300     282.7574  -0.22936422            0    3370.3122    2.1173421     72754255 
   48400    287.72371  -0.43633492            0     3429.305    2.1309535     73546930 
   48500    282.78259  -0.28090705            0    3370.5609    2.0717592     74358637 
   48600     277.8332  -0.32677477            0    3311.5171    2.0138244     75156259 
   48700    284.14238  -0.39860713            0    3386.6523    2.0382006     75940532 
   48800    286.50553  -0.44262377            0    3414.7776    2.0334292     76749923 
   48900    281.80151  -0.54437167            0    3358.6028    1.9786883     77572784 
   49000    279.51375  -0.72394472            0    3331.1525    1.9421731     78381813 
   49100    286.63263  -0.73540031            0    3415.9999    1.9715083     79187136 
   49200    286.81189  -0.70537449            0    3418.1667    1.9522143     80020060 
   49300    281.56867  -0.74007545            0    3355.6315     1.896619     80858276 
   49400    280.14045  -0.79249645            0    3338.5543    1.8680583     81678210 
   49500    285.10005  -0.97261222            0    3397.4939    1.8820198     82494340 
   49600    288.04514   -1.4456529            0    3432.1271    1.8845411     83334670 
   49700     284.0749  -0.59139223            0    3385.6552    1.8378195     84189149 
   49800    281.35857   -0.4521224            0     3353.415    1.8024024     85030907 
   49900    282.11602   -0.3900642            0     3362.506    1.7898704     85860239 
   50000    285.79431   -0.3165072            0    3406.4258    1.7958334     86695480 
   50100    285.62349  -0.25731494            0    3404.4488    1.7773362     87549104 
   50200    278.61406   -0.2294255            0    3320.9225    1.7170089     88402564 
   50300    274.28964  -0.22123473            0    3269.3824     1.674833     89222355 
   50400    282.70297  -0.19386588            0    3369.6988    1.7107968     90028375 
   50500    283.95253  -0.17688928            0    3384.6109     1.702513     90867578 
   50600    283.05839  -0.17084118            0    3373.9585     1.681312     91724075 
   50700    282.89547  -0.17600747            0    3372.0114    1.6648038     92579914 
   50800    286.00425  -0.19678114            0    3409.0481    1.6676435     93436524 
   50900     287.4223  -0.26349744            0    3425.8848     1.660338     94308257 
   51000    280.30723  -0.45016311            0    3340.8847    1.6041441     95183100 
   51100    275.20081  -0.80354954            0    3279.6615      1.56104     96019110 
   51200    282.71482  -0.24694597            0     3369.787     1.595539     96830427 
   51300    283.72952  -0.70818428            0    3381.4213    1.5822221     97670632 
   51400    282.59403  -0.32702279            0    3368.2671    1.5624823     98526348 
   51500    283.04411  -0.20904856            0    3373.7501    1.5516609     99380199 
   51600    286.73598  -0.16151008            0    3417.8057    1.5585111 1.0023791e+08 
   51700    287.34081  -0.15543838            0    3425.0216    1.5482697 1.0111431e+08 
   51800    278.44644  -0.19716433            0    3318.9566    1.4874343 1.0198804e+08 
   51900    275.90992  -0.28349592            0    3288.6343    1.4619815 1.0281131e+08 
   52000    282.54516  -0.60119392            0    3367.4104    1.4852653 1.0361482e+08 
   52100     283.3374   -0.7231279            0    3376.7322    1.4803068 1.0444586e+08 
   52200    283.14048  -0.39752307            0    3374.7104    1.4648517 1.0529134e+08 
   52300    284.00594  -0.19948755            0     3385.225    1.4578026 1.0613893e+08 
   52400    286.77756   -0.1489648            0    3418.3139    1.4603505 1.069922e+08 
   52500    286.23031  -0.15961702            0    3411.7799    1.4458352 1.0785915e+08 
   52600    278.49722  -0.26153897            0    3319.4975     1.395578 1.0871515e+08 
   52700    277.27231   -0.6719095            0     3304.486    1.3788906 1.0952057e+08 
   52800    285.04096  -0.95033777            0    3396.8118    1.4075295 1.1031233e+08 
   52900    284.20913  -0.25544816            0    3387.5911     1.393155 1.1113889e+08 
   53000    281.38285  -0.15920226            0    3353.9974     1.369159 1.1197037e+08 
   53100    281.86398   -0.1478858            0    3359.7439    1.3616246 1.1278352e+08 
   53200    288.60477   -0.2141458            0    3440.0296    1.3841074 1.1359925e+08 
   53300    286.48071  -0.82636544            0     3414.098    1.3633807 1.1444878e+08 
   53400    278.40499  -0.56797788            0    3318.0917    1.3153782 1.1528373e+08 
   53500    278.65529  -0.20050745            0    3321.4428    1.3080345 1.1606262e+08 
   53600    281.24205  -0.14030245            0    3352.3379    1.3116598 1.1682213e+08 
   53700    284.12654  -0.16016045            0    3386.7019    1.3163924 1.1759424e+08 
   53800    285.16142  -0.40905885            0    3398.7891    1.3120886 1.1838859e+08 
   53900    282.56655   -0.8358489            0    3367.4307    1.2912422 1.1919143e+08 
   54000    277.27089  -0.20970174            0    3304.9312    1.2591447 1.1996909e+08 
   54100    280.95825  -0.13802574            0    3348.9572    1.2682002 1.2070376e+08 
   54200    286.47121  -0.16032034            0    3414.6508    1.2851036 1.2145149e+08 
   54300    283.96975  -0.54266402            0    3384.4504     1.265404 1.2223422e+08 
   54400    279.47506  -0.55822883            0     3330.857    1.2375606 1.2300443e+08 
   54500    281.09949  -0.17096116            0    3350.6078    1.2377281 1.2373426e+08 
   54600    288.66473  -0.12664376            0    3440.8318    1.2635825 1.2446932e+08 
   54700    284.64984  -0.24670726            0    3392.8533    1.2381637 1.2524586e+08 
   54800    278.71419  -0.70906842            0    3321.6364    1.2071474 1.2599943e+08 
   54900    281.09501  -0.21011379            0    3350.5153    1.2087122 1.2669862e+08 
   55000    287.61237  -0.12070057            0    3428.2933    1.2300336 1.2739862e+08 
   55100    285.04917  -0.20048107            0    3397.6595    1.2119806 1.2813568e+08 
   55200    281.16553  -0.37714285            0    3351.1889    1.1919296 1.2886252e+08 
   55300    280.88064  -0.19258244            0    3347.9775    1.1812284 1.2954944e+08 
   55400    287.11757  -0.11824213            0    3422.3977    1.2013089 1.302207e+08 
   55500    287.88362   -0.2352167            0    3431.4122    1.1978947 1.309283e+08 
   55600    278.19152  -0.77907611            0     3315.336     1.151004 1.3164051e+08 
   55700    276.60592  -0.15993677            0    3297.0544    1.1393095 1.3227502e+08 
   55800    280.98212  -0.12542449            0    3349.2543    1.1522682 1.3286068e+08 
   55900    285.17177  -0.30610728            0    3399.0153    1.1640162 1.3346254e+08 
   56000    285.12146   -0.4154508            0    3398.3064    1.1581745 1.3410236e+08 
   56100    279.99124    -0.127877            0    3337.4404    1.1321142 1.3474868e+08 
   56200    275.77468  -0.14696447            0    3287.1588    1.1101373 1.353444e+08 
   56300    284.52524  -0.67822262            0    3390.9364    1.1404116 1.3589048e+08 
   56400    286.40207     -0.19763            0    3413.7893    1.1433052 1.3647755e+08 
   56500     281.8805  -0.11825333            0    3359.9705    1.1202517 1.3709559e+08 
   56600    278.87601  -0.24305537            0    3324.0313    1.1034891 1.3768067e+08 
   56700    286.10179   -0.5978399            0    3409.8098    1.1273855 1.3822588e+08 
   56800     288.8686  -0.11205397            0    3443.2766    1.1338471 1.3881079e+08 
   56900    282.65358  -0.16093605            0    3369.1431    1.1044986 1.3942747e+08 
   57000    280.28945  -0.86422751            0    3340.2587    1.0919364 1.399978e+08 
   57100    282.56967  -0.13754016            0    3368.1662    1.0956208 1.4051818e+08 
   57200    284.67723  -0.12974016            0    3393.2967    1.0997853 1.4103116e+08 
   57300     283.7774  -0.98122714            0     3381.719    1.0921531 1.4155353e+08 
   57400    282.65475  -0.15711977            0    3369.1608    1.0839848 1.4206709e+08 
   57500    282.61627   -0.1210099            0    3368.7383    1.0801193 1.4256028e+08 
   57600    284.22647  -0.54400595            0    3387.5092    1.0823295 1.4303903e+08 
   57700    286.77645      -1.1499            0    3417.2998    1.0883659 1.4352336e+08 
   57800     284.7758   -1.0804812            0     3393.521    1.0770313 1.4402674e+08 
   57900    277.85126  -0.48623858            0    3311.5729    1.0473358 1.4450576e+08 
   58000    279.75981  -0.21851077            0     3334.591    1.0518167 1.4490511e+08 
   58100    286.93018  -0.10117684            0    3420.1809    1.0760623 1.4528469e+08 
   58200    285.06725  -0.44597685            0    3397.6296    1.0656774 1.4571159e+08 
   58300    281.46491  -0.17839599            0    3354.9563       1.0493 1.4614272e+08 
   58400    281.28761  -0.10742322            0    3352.9139    1.0458947 1.4653476e+08 
   58500    289.53975   -0.5107333            0    3450.8782    1.0735587 1.469069e+08 
   58600    290.38828  -0.12043591            0    3461.3832    1.0737923 1.4734435e+08 
   58700     282.7951  -0.12373444            0    3370.8672    1.0423783 1.4781511e+08 
   58800    281.35856   -0.9826691            0    3352.8843     1.034617 1.4822419e+08 
   58900    283.40845  -0.11230484            0    3378.1899    1.0393154 1.4857367e+08 
   59000    287.03563  -0.15196248            0    3421.3872     1.050211 1.4890946e+08 
   59100    286.29471  -0.31978691            0    3412.3875    1.0448321 1.4927084e+08 
   59200    277.75061  -0.10306763            0    3310.7562    1.0114405 1.4962142e+08 
   59300    278.95864  -0.23237731            0     3325.027    1.0139848 1.4987938e+08 
   59400     285.6345  -0.22149342            0    3404.6158    1.0367793 1.5009403e+08 
   59500    285.11883  -0.09853302            0    3398.5919    1.0332753 1.5034592e+08 
   59600    282.16761  -0.52471471            0    3362.9864    1.0204517 1.5061468e+08 
   59700    281.31408   -0.1503747            0    3353.1864    1.0159845 1.5085749e+08 
   59800    288.26662  -0.10553123            0    3436.1073    1.0396209 1.5107723e+08 
   59900    291.38498  -0.71558612            0     3472.669    1.0504855 1.5135915e+08 
   60000    282.57165  -0.11201788            0    3368.2154    1.0148893 1.517003e+08 
   60100     280.5368  -0.14322238            0    3343.9282    1.0056728 1.5198405e+08 
   60200    283.56083  -0.70887953            0    3379.4098    1.0147631 1.5219786e+08 
   60300    287.40368 -0.098795135            0    3425.8277    1.0275247 1.5239897e+08 
   60400    284.79368  -0.20430936            0    3394.6102     1.016556 1.5263132e+08 
   60500    276.59393  -0.29839565            0    3296.7731   0.98587291 1.5283848e+08 
   60600    280.57168 -0.099774606            0    3344.3875   0.99953034 1.5294263e+08 
   60700    286.12092  -0.29122038            0    3410.3443    1.0186442 1.5301849e+08 
   60800    284.61951  -0.17014043            0    3392.5683     1.012609 1.5313665e+08 
   60900    281.27408  -0.10489747            0    3352.7551   0.99990858 1.5326689e+08 
   61000    281.30416  -0.78388464            0    3352.4347   0.99901422 1.5336379e+08 
   61100     290.5792  -0.12452747            0     3463.655    1.0317488 1.5344892e+08 
   61200     288.1354  -0.12195929            0    3434.5268      1.02193 1.5362052e+08 
   61300    280.63891    -1.115014            0    3344.1736   0.99403959 1.5382583e+08 
   61400    280.73559  -0.11265628            0    3346.3283   0.99347065 1.5396373e+08 
   61500    285.41985  -0.14317287            0    3402.1355    1.0094631 1.5404925e+08 
   61600    287.62748  -0.43850448            0    3428.1556    1.0163816 1.5415199e+08 
   61700    278.41827  -0.10355859            0    3318.7144   0.98323986 1.542827e+08 
   61800    277.04605  -0.20756138            0    3302.2532   0.97801199 1.5432959e+08 
   61900    284.47916  -0.26263632            0    3390.8027    1.0044651 1.5429111e+08 
   62000    285.92598 -0.097195539            0    3408.2146    1.0098245 1.5427305e+08 
   62100    282.38072  -0.63728745            0    3365.4141   0.99675353 1.5429396e+08 
   62200     278.8909  -0.16127061            0    3324.2906    0.9847546 1.5429947e+08 
   62300    282.03964  -0.10635572            0    3361.8793   0.99624874 1.5424847e+08 
   62400    289.18699  -0.97311351            0    3446.2109    1.0216617 1.5420075e+08 
   62500    284.84957  -0.11785732            0    3395.3629    1.0062301 1.5423858e+08 
   62600    279.14773  -0.13047995            0    3327.3829   0.98571567 1.5429494e+08 
   62700    281.50619  -0.95299314            0    3354.6738   0.99463396 1.5429369e+08 
   62800    286.18041  -0.10514864            0    3411.2395    1.0107223 1.5427216e+08 
   62900    285.10089  -0.15965308            0    3398.3169    1.0067255 1.5429345e+08 
   63000    272.70115  -0.41751394            0    3250.2509   0.96257306 1.5432166e+08 
   63100    277.00956  -0.10179762            0     3301.924   0.97867901 1.542176e+08 
   63200    284.66757  -0.21501893            0    3393.0962    1.0068233 1.5403724e+08 
   63300    286.25885  -0.19176295            0     3412.088    1.0133786 1.5389921e+08 
   63400    281.54745  -0.10135719            0    3356.0172   0.99725048 1.5382524e+08 
   63500    278.08874   -0.6546681            0    3314.2353   0.98515075 1.537477e+08 
   63600    285.71634  -0.13733741            0    3405.6755     1.013292 1.536273e+08 
   63700    289.89233  -0.11185113            0      3455.48    1.0285136 1.5356926e+08 
   63800     284.0039  -0.96896798            0    3384.4312    1.0070589 1.536292e+08 
   63900    280.86976  -0.10923631            0    3347.9312   0.99549807 1.5372403e+08 
   64000     282.4605  -0.16293585            0    3366.8395    1.0005807 1.5380263e+08 
   64100    287.88768  -0.35374959            0    3431.3421    1.0190967 1.5388855e+08 
   64200    291.96186 -0.090471919            0    3480.1707    1.0325605 1.540622e+08 
   64300    281.44463  -0.53549183            0    3354.3575   0.99314306 1.5435868e+08 
   64400    279.00608  -0.15572393            0    3325.6691   0.98297713 1.5464304e+08 
   64500     284.0995  -0.10616346            0    3386.4336   0.99955695 1.548609e+08 
   64600    286.98538  -0.25680764            0    3420.6834    1.0112427 1.5507612e+08 
   64700    281.78668  -0.13912324            0    3358.8312   0.98843223 1.5532432e+08 
   64800    274.34349  -0.14903881            0    3270.0965   0.96110981 1.5551889e+08 
   64900    281.67803  -0.83196118            0    3356.8432   0.98625433 1.5555884e+08 
   65000    284.89993 -0.099564389            0    3395.9815   0.99810351 1.5552424e+08 
   65100    283.15066  -0.31981003            0    3374.9095   0.99210705 1.5547473e+08 
   65200    280.79649  -0.27037723            0    3346.8966   0.98446596 1.553856e+08 
   65300     282.2097 -0.098584268            0    3363.9142   0.99059931 1.5522271e+08 
   65400    287.79062  -0.45825905            0    3430.0805    1.0113214 1.550095e+08 
   65500    287.02044  -0.12350993            0    3421.2346      1.01005 1.5482569e+08 
   65600     278.0655  -0.12285444            0      3314.49   0.97959503 1.5465799e+08 
   65700    280.10824  -0.16210044            0    3338.8008   0.99169766 1.5439474e+08 
   65800    285.06582  -0.12085578            0    3397.9376    1.0082134 1.5405158e+08 
   65900    285.30961  -0.14397168            0    3400.8206    1.0113474 1.537027e+08 
   66000    282.00347  -0.58874069            0    3360.9657    1.0015369 1.5336442e+08 
   66100    278.11682  -0.51792019            0    3314.7068   0.99011087 1.5299628e+08 
   66200    273.38812  -0.18336422            0     3258.674   0.97648717 1.5253229e+08 
   66300    282.76463  -0.64823852            0    3369.9794    1.0137246 1.5192765e+08 
   66400    287.43613  -0.10288912            0    3426.2104    1.0350102 1.5131334e+08 
   66500    283.56901  -0.19015629            0     3380.026    1.0245373 1.5079261e+08 
   66600    279.27316  -0.45908878            0    3328.5494    1.0118572 1.503405e+08 
   66700    282.23144  -0.11070419            0    3364.1613    1.0257293 1.4991652e+08 
   66800     291.1157    -0.181443            0    3469.9932    1.0603189 1.4958314e+08 
   66900    288.84296  -0.29172056            0    3442.7912    1.0526826 1.4947929e+08 
   67000    278.65916   -0.1229577            0    3321.5665    1.0149511 1.4958908e+08 
   67100    281.56618  -0.18910188            0    3356.1529    1.0240588 1.4979748e+08 
   67200    286.73197  -0.56404544            0    3417.3555    1.0401756 1.5014709e+08 
   67300    285.04477  -0.11123754            0    3397.6964    1.0304388 1.5071901e+08 
   67400    277.94349  -0.16799537            0    3312.9905   0.99959153 1.514919e+08 
   67500    278.60605  -0.97128918            0    3320.0851   0.99688786 1.5234592e+08 
   67600    287.44534  -0.31120766            0    3426.1118    1.0217727 1.5325217e+08 
   67700    284.25407  -0.14793422            0    3388.2343    1.0039757 1.542579e+08 
   67800      279.536  -0.78871989            0    3331.3529   0.98066527 1.5525342e+08 
   67900    281.50537  -0.11220638            0    3355.5048   0.98253575 1.5610421e+08 
   68000    288.81866  -0.14872529            0    3442.6446    1.0035179 1.5680671e+08 
   68100    285.71323   -0.4189107            0    3405.3569   0.98859467 1.5742981e+08 
   68200    281.86959  -0.10177743            0    3359.8569   0.97247053 1.5792537e+08 
   68300    281.88951  -0.23849257            0    3359.9575   0.97050385 1.5823917e+08 
   68400    284.09735  -0.22423114            0    3386.2899   0.97722063 1.5838436e+08 
   68500    287.41098  -0.09763756            0    3425.9158   0.98855188 1.5841134e+08 
   68600    288.50031  -0.59422288            0    3438.4043   0.99215662 1.5838329e+08 
   68700     280.5862  -0.14231735            0    3344.5179   0.96566817 1.5830828e+08 
   68800    279.15506  -0.11331261            0    3327.4874   0.96207354 1.5809304e+08 
   68900    285.36134  -0.97897868            0    3400.6022   0.98608962 1.5773373e+08 
   69000    288.04221  -0.11145409            0    3433.4264    0.9974884 1.5733516e+08 
   69100    279.26579  -0.14319039            0    3328.7775   0.96948005 1.5694356e+08 
   69200    277.62813  -0.95738711            0     3308.442    0.9673295 1.5646049e+08 
   69300     283.3221  -0.11470715            0    3377.1582   0.99030972 1.5587808e+08 
   69400    286.80866  -0.13991928            0    3418.6937    1.0061709 1.5530582e+08 
   69500    282.97307  -0.65081594            0    3372.4616   0.99558254 1.5481018e+08 
   69600    277.45809  -0.11657818            0    3307.2558   0.97944338 1.5434484e+08 
   69700    282.16826  -0.14742961            0    3363.3714   0.99922143 1.5385447e+08 
   69800    289.89145  -0.76427163            0     3454.817    1.0291332 1.5342345e+08 
   69900    287.07486  -0.11041681            0    3421.8964    1.0212977 1.5315125e+08 
   70000    281.58986  -0.16950925            0    3356.4547    1.0027508 1.5299579e+08 
   70100    279.75242    -1.332305            0    3333.3891     0.996639 1.5287292e+08 
   70200    284.47643  -0.20206025            0    3390.8308    1.0145838 1.5275711e+08 
   70300    288.91093  -0.13450041            0    3443.7587    1.0307408 1.527158e+08 
   70400    281.11355  -0.99429756            0    3349.9521    1.0026528 1.5279671e+08 
   70500    276.93025  -0.14388273            0    3300.9365   0.98685102 1.528913e+08 
   70600    282.24211   -0.1208214            0    3364.2783    1.0055055 1.5293631e+08 
   70700    285.71711  -0.76138075            0    3405.0607    1.0171031 1.530025e+08 
   70800    283.83365  -0.16882392            0    3383.2019    1.0098018 1.5313846e+08 
   70900    277.16168  -0.11668987            0    3303.7224   0.98499898 1.5331031e+08 
   71000    274.71702  -0.31967038            0    3274.3785   0.97546787 1.5341794e+08 
   71100    285.78596  -0.31827944            0    3406.3244     1.014618 1.5344288e+08 
   71200    285.99571  -0.11034512            0    3409.0327    1.0150294 1.5351772e+08 
   71300    280.89576  -0.19587825            0    3348.1544   0.99595591 1.5365671e+08 
   71400    279.27079  -0.87785148            0    3328.1024   0.98911106 1.5378744e+08 
   71500    286.83395  -0.12727944            0    3419.0078    1.0155437 1.5388761e+08 
   71600    289.23822  -0.13296936            0    3447.6617    1.0229299 1.5405646e+08 
   71700    283.84498  -0.65844608            0    3382.8474    1.0038191 1.5433246e+08 
   71800    281.83021  -0.15864094            0    3359.3305   0.99293105 1.5464224e+08 
   71900    282.63333  -0.11685437            0    3368.9458   0.99385876 1.5494354e+08 
   72000    286.02726  -0.43491856            0    3409.0842    1.0036362 1.5524119e+08 
   72100    289.36868  -0.20451711            0    3449.1453    1.0132998 1.5558198e+08 
   72200    282.29029  -0.11308953            0    3364.8604   0.98593595 1.5599953e+08 
   72300    277.63006  -0.26863001            0    3309.1537   0.96711452 1.5639012e+08 
   72400    282.74572  -0.42975685            0    3369.9725   0.98308821 1.5666698e+08 
   72500    285.94388   -0.2798906            0    3408.2453   0.99294328 1.5688164e+08 
   72600    283.91355  -0.26595956            0    3384.0571    0.9846873 1.5707536e+08 
   72700    282.22644   -1.5531607            0    3362.6592   0.97735225 1.5721512e+08 
   72800    282.48447  -0.12208686            0    3367.1661   0.97867713 1.5726349e+08 
   72900    283.56894  -0.14436678            0    3380.0709   0.98274046 1.5721171e+08 
   73000    283.74568  -0.73175781            0    3381.5903   0.98576807 1.5706463e+08 
   73100    283.41934  -0.13171158            0    3378.3003   0.98470587 1.5681677e+08 
   73200    282.86282  -0.12687671            0    3371.6713   0.98504875 1.5645496e+08 
   73300    282.14621  -0.96911215            0    3362.2869   0.98549993 1.5596381e+08 
   73400    281.45085  -0.17007922            0    3354.7971   0.98719826 1.5532944e+08 
   73500    283.21133  -0.11399312            0    3375.8386   0.99840161 1.5455436e+08 
   73600    286.08545  -0.37662384            0    3409.8361    1.0139789 1.5369452e+08 
   73700    283.54791  -0.25014196            0    3379.7145    1.0107252 1.5283485e+08 
   73800     278.3784  -0.12093242            0    3318.2218   0.99791187 1.519903e+08 
   73900    281.65813  -0.18365979            0    3357.2543    1.0152566 1.5114622e+08 
   74000    290.53428  -0.97017629            0    3462.2738    1.0523408 1.5040133e+08 
   74100    286.47992  -0.12934558            0    3414.7856    1.0412903 1.4989712e+08 
   74200    279.92123  -0.13470964            0     3336.599    1.0195456 1.4958809e+08 
   74300    282.79207  -0.66077567            0     3370.294    1.0310578 1.4938765e+08 
   74400    286.24668  -0.21293011            0    3411.9218    1.0443213 1.4933046e+08 
   74500    284.23669   -0.1144425            0    3388.0606    1.0361808 1.4945844e+08 
   74600     278.1841  -0.23450757            0    3315.7921    1.0121458 1.4973446e+08 
   74700    279.94572  -0.83543702            0    3336.1902    1.0160232 1.5007214e+08 
   74800    288.45586  -0.12144236            0    3438.3472    1.0443192 1.5049433e+08 
   74900    285.23681  -0.14099596            0    3399.9558    1.0285779 1.5108973e+08 
   75000    280.51349  -0.68506375            0    3343.1085    1.0085312 1.5179901e+08 
   75100     281.0003   -0.1641086            0    3349.4323     1.003772 1.5252087e+08 
   75200    288.93246  -0.11108752            0    3444.0388    1.0273588 1.5323288e+08 
   75300     288.7847  -0.65173989            0    3441.7368    1.0213764 1.5400105e+08 
   75400    283.36942   -0.1860755            0    3377.6509   0.99741122 1.5478511e+08 
   75500    281.79412  -0.11194638            0     3358.947   0.98753309 1.5547361e+08 
   75600    283.01623  -0.32011779            0    3373.3068   0.98816392 1.5602316e+08 
   75700     286.1952  -0.26426938            0    3411.2568   0.99657273 1.5645096e+08 
   75800    286.00403  -0.11034751            0    3409.1319   0.99379201 1.5680292e+08 
   75900    278.22832   -0.2740118            0    3316.2797   0.96501323 1.5706771e+08 
   76000    278.14376  -0.46734232            0    3315.0785   0.96405728 1.5715485e+08 
   76100    285.85068  -0.11191258            0    3407.3023   0.99146896 1.5708585e+08 
   76200    285.78844  -0.17907048            0    3406.4933    0.9918991 1.5697504e+08 
   76300    282.61328  -0.60762256            0     3368.216   0.98148068 1.5683691e+08 
   76400    281.02439  -0.11926086            0    3349.7644   0.97753981 1.5663298e+08 
   76500    284.66922  -0.14866813            0    3393.1823   0.99196427 1.5635369e+08 
   76600     292.0309   -1.0353414            0    3480.0487    1.0196243 1.5607422e+08 
   76700    284.73096  -0.12622279            0    3393.9407   0.99519005 1.5588357e+08 
   76800    280.67843  -0.13538388            0    3345.6243    0.9822061 1.5569481e+08 
   76900    282.71245  -0.96963785            0     3369.036   0.99138244 1.5544675e+08 
   77000    286.34649  -0.14923189            0    3413.1752    1.0053818 1.5517605e+08 
   77100    285.71515  -0.11665036            0    3405.6821    1.0047104 1.5494148e+08 
   77200    277.64796  -0.68137985            0    3308.9543   0.97736226 1.547262e+08 
   77300    279.58229  -0.21342681            0      3332.48    0.9862848 1.544356e+08 
   77400     286.3902   -0.1068624            0    3413.7386    1.0125671 1.5410377e+08 
   77500     285.8145  -0.32185712            0    3406.6611    1.0121642 1.5382986e+08 
   77600    282.87505  -0.27201595            0     3371.672    1.0031714 1.5361771e+08 
   77700    282.21279  -0.11114421            0    3363.9385    1.0021764 1.5342965e+08 
   77800    283.16962  -0.20634469            0     3375.249    1.0066267 1.5325749e+08 
   77900    284.05111  -0.52336614            0    3385.4396    1.0104733 1.5311774e+08 
   78000    283.16168  -0.11702901            0    3375.2437     1.008197 1.5302551e+08 
   78100    280.77768  -0.16060152            0    3346.7822    1.0000456 1.5296829e+08 
   78200    282.06831  -0.68769567            0    3361.6397    1.0068841 1.5291687e+08 
   78300    286.23921  -0.17605604            0    3411.8695    1.0199924 1.5289225e+08 
   78400    285.88638  -0.12918272            0    3407.7106     1.018364 1.5295413e+08 
   78500    278.13551   -1.0005761            0    3314.4469    0.9899421 1.5309418e+08 
   78600    278.18261  -0.18272222            0    3315.8262   0.98921675 1.5321063e+08 
   78700    285.42337  -0.10899379            0    3402.2116    1.0144433 1.5329915e+08 
   78800     284.9911  -0.43307507            0    3396.7347    1.0116672 1.5345091e+08 
   78900    281.91347  -0.21387174            0    3360.2678   0.99944866 1.5367242e+08 
   79000    280.57562  -0.11011464            0     3344.424   0.99319356 1.5391925e+08 
   79100    285.99841  -0.26110928            0    3408.9142    1.0106115 1.5417207e+08 
   79200    289.97026  -0.23230213            0    3456.2884    1.0224548 1.5450626e+08 
   79300    281.59387  -0.10915327            0    3356.5628   0.99001414 1.5497412e+08 
   79400    279.12303  -0.25519769            0    3326.9638   0.97810565 1.5546616e+08 
   79500    282.48358  -0.32189203            0    3366.9557   0.98696879 1.5591784e+08 
   79600     285.2144  -0.10707591            0    3399.7225   0.99387017 1.563581e+08 
   79700    283.92824  -0.23674039            0    3384.2616   0.98640746 1.5681435e+08 
   79800    275.76835  -0.30884503            0    3286.9215   0.95537256 1.572458e+08 
   79900    276.17852  -0.11070267            0    3292.0089   0.95528276 1.5751938e+08 
   80000    284.48311  -0.19003433            0    3390.9224   0.98335794 1.5761379e+08 
   80100    284.96913  -0.36836906            0    3396.5375   0.98484745 1.5762386e+08 
   80200    281.85472  -0.11323889            0    3359.6682   0.97469897 1.5755443e+08 
   80300    279.27141  -0.20369907            0     3328.784   0.96696851 1.5734664e+08 
   80400    283.91771  -0.45870915            0    3383.9141   0.98538431 1.5694796e+08 
   80500    290.31326 -0.098970476            0    3460.5104    1.0112648 1.5641711e+08 
   80600    284.26854  -0.23638892            0    3388.3183    0.9937371 1.5584435e+08 
   80700    281.09503  -0.35615308            0    3350.3696   0.98682023 1.5517092e+08 
   80800    283.16547  -0.10860748            0    3375.2972    0.9995014 1.5435998e+08 
   80900    285.37776  -0.19161167            0    3401.5853    1.0130596 1.5347378e+08 
   81000    281.66902  -0.47158654            0    3357.0962     1.005467 1.5259339e+08 
   81100    276.68295  -0.12496183            0    3298.0076   0.99360174 1.5171932e+08 
   81200    283.06539  -0.14245932            0    3374.0704     1.022387 1.5084714e+08 
   81300    287.71864  -0.18988187            0    3429.4909    1.0475554 1.5010963e+08 
   81400    285.03133  -0.14286148            0    3397.5045    1.0380794 1.4959872e+08 
   81500     282.5725  -0.12321093            0    3368.2143    1.0313016 1.4928518e+08 
   81600    282.13701  -0.54320215            0    3362.6031    1.0305104 1.4912706e+08 
   81700    283.91439  -0.23228791            0    3384.1009    1.0373202 1.4911097e+08 
   81800    289.90029  -0.11316099            0    3455.5735    1.0582183 1.492624e+08 
   81900    286.90204  -0.27342845            0    3419.6733     1.044478 1.4964321e+08 
   82000    278.84015   -0.4242511            0    3323.4226    1.0113032 1.5019275e+08 
   82100    280.35531  -0.12070899            0    3341.7873    1.0130487 1.5078268e+08 
   82200    284.91254  -0.27549549            0    3395.9559     1.025159 1.5140393e+08 
   82300    284.65375  -0.93875833            0    3392.2078    1.0204197 1.5208789e+08 
   82400    282.39326  -0.13268991            0    3366.0683     1.006929 1.5280041e+08 
   82500     281.9241  -0.12654061            0    3360.4818    1.0008241 1.5347781e+08 
   82600    282.67289  -0.95937083            0    3368.5748   0.99934144 1.540864e+08 
   82700    283.48635    -0.156655            0    3379.0742   0.99891076 1.5462019e+08 
   82800    284.21848  -0.11332911            0    3387.8447   0.99853843 1.5508286e+08 
   82900     286.0032  -0.60783663            0    3408.6245    1.0019057 1.5548316e+08 
   83000    284.25245  -0.16684512            0    3388.1961    0.9937767 1.5583776e+08 
   83100    279.65534  -0.11323334            0     3333.451   0.97599866 1.5611676e+08 
   83200    280.61518  -0.40892776            0    3344.5968   0.97821094 1.5626391e+08 
   83300    287.97292  -0.20412015            0    3432.5078    1.0037102 1.5631066e+08 
   83400    286.98885  -0.14620274            0    3420.8353    1.0000192 1.5635827e+08 
   83500    280.12332  -0.39855353            0     3338.744   0.97570042 1.5639221e+08 
   83600    280.73154  -0.26298911            0    3346.1298   0.97831382 1.5632759e+08 
   83700    283.96002  -0.11152309            0    3384.7656   0.99065727 1.5617466e+08 
   83800    285.73458  -0.28314463            0    3405.7471   0.99789421 1.5598992e+08 
   83900    281.45329  -0.27945545            0    3354.7167   0.98413343 1.5580135e+08 
   84000    275.93068  -0.11569391            0    3289.0496     0.966511 1.5554903e+08 
   84100    283.21308  -0.17870858            0    3375.7947   0.99434864 1.5517708e+08 
   84200    287.56332  -0.51595462            0    3427.3134    1.0118956 1.5479363e+08 
   84300    283.99109  -0.13936038            0    3385.1081    1.0016409 1.5447527e+08 
   84400     280.6248  -0.16512037            0    3344.9552   0.99164247 1.5418001e+08 
   84500    282.06391  -0.99682811            0    3361.2782   0.99880461 1.5386649e+08 
   84600    290.69627  -0.11999539            0     3465.055    1.0313494 1.5357075e+08 
   84700    289.62786  -0.14046899            0    3452.2987    1.0286115 1.5341097e+08 
   84800    281.62747  -0.28079103            0    3356.7917    1.0033719 1.5337247e+08 
   84900    281.71756  -0.14104852            0    3358.0054    1.0009197 1.5334887e+08 
   85000    284.61396   -0.1208955            0    3392.5513      1.01132 1.5333496e+08 
   85100    286.30943   -0.9046432            0     3411.978    1.0168164 1.533727e+08 
   85200    280.79224   -0.1596991            0    3346.9566   0.99676093 1.5348049e+08 
   85300    276.50388  -0.11763906            0    3295.8804   0.98093452 1.5358002e+08 
   85400    283.96424   -0.3659464            0    3384.5615     1.006992 1.5361409e+08 
   85500     286.5711  -0.20188459            0    3415.7999    1.0159648 1.536737e+08 
   85600    283.27897  -0.10779797            0     3376.651    1.0035004 1.5380659e+08 
   85700    280.67415  -0.33098701            0    3345.3776   0.99305495 1.5396842e+08 
   85800    283.23827  -0.25975369            0    3376.0138    1.0012021 1.5411893e+08 
   85900    291.73948 -0.097897022            0    3477.5123    1.0301482 1.5430441e+08 
   86000    286.04412  -0.41814327            0    3409.3019    1.0076686 1.5463064e+08 
   86100    280.93067  -0.20642164            0    3348.5601   0.98721489 1.5503521e+08 
   86200    281.86444   -0.1066489            0    3359.7906   0.98806261 1.5542977e+08 
   86300    285.32675  -0.33539648            0    3400.8334    0.9975695 1.5581256e+08 
   86400    286.91149  -0.19317336            0    3419.8662    1.0005738 1.5622399e+08 
   86500    280.37136  -0.10765617            0    3341.9916   0.97503156 1.5667249e+08 
   86600    276.72533  -0.36178198            0    3298.2759   0.95982863 1.5705321e+08 
   86700    283.93502  -0.21587394            0    3384.3633   0.98344156 1.5729354e+08 
   86800    286.19419  -0.10240431            0    3411.4065   0.99025966 1.5746797e+08 
   86900    283.11678  -0.42201021            0    3374.4035    0.9785065 1.5760852e+08 
   87000    280.64818  -0.19304163            0    3345.2061   0.96980162 1.5766189e+08 
   87100    284.21891   -0.1054854            0    3387.8577   0.98274478 1.5757646e+08 
   87200    292.04041  -0.44025635            0    3480.7571    1.0106784 1.5740098e+08 
   87300    284.85941  -0.16517202            0    3395.4328     0.987092 1.5722839e+08 
   87400     280.7225  -0.11125901            0    3346.1737   0.97439342 1.5697098e+08 
   87500    282.57371  -0.49586726            0     3367.856   0.98322532 1.5654447e+08 
   87600    286.72993   -0.1738317            0    3417.7213    1.0016423 1.5596093e+08 
   87700    286.61854  -0.10746807            0    3416.4599    1.0056724 1.5528392e+08 
   87800    278.67428  -0.58774178            0    3321.2819   0.98231298 1.5452007e+08 
   87900    280.35005  -0.20047017            0    3341.6448   0.99439955 1.5359755e+08 
   88000    287.01611    -0.110975            0    3421.1955    1.0248776 1.5258495e+08 
   88100     286.6076  -0.43482049            0    3416.0021    1.0295126 1.5164643e+08 
   88200    277.31982  -0.22611793            0    3305.4981    1.0016682 1.5083154e+08 
   88300    280.38585  -0.10884387            0    3342.1632    1.0179261 1.5007805e+08 
   88400    285.80033  -0.26088877            0    3406.5532    1.0418202 1.4945005e+08 
   88500    285.80315  -0.55823987            0    3406.2895    1.0444749 1.4903611e+08 
   88600    278.46065  -0.27567064            0    3319.0475    1.0192855 1.4882726e+08 
   88700    277.77622  -0.20087007            0    3310.9637    1.0175584 1.4872348e+08 
   88800    286.03352  -0.58032311            0    3409.0134    1.0476259 1.4871501e+08 
[...]
  191100    289.70061  -0.19815642            0    3453.1082    1.0444049 1.5112225e+08 
  191200    282.68204  -0.12707829            0    3369.5161    1.0167476 1.5148029e+08 
  191300    278.39669  -0.18654537            0    3318.3742   0.99831018 1.5193144e+08 
  191400    282.58288  -0.98805237            0    3367.4732    1.0101904 1.5240024e+08 
  191500    285.72842   -0.2335678            0    3405.7233    1.0179087 1.5292544e+08 
  191600    283.84376  -0.15445464            0    3383.3368    1.0072336 1.535359e+08 
  191700    282.11971  -0.20448549            0    3362.7356   0.99685168 1.541862e+08 
  191800    282.42291  -0.99134745            0     3365.563   0.99419129 1.5482253e+08 
  191900    285.73411  -0.22044893            0    3405.8043    1.0015809 1.5542306e+08 
  192000    292.59857  -0.11450328            0    3487.7363    1.0217797 1.5602421e+08 
  192100    284.73688  -0.24010627            0    3393.8974   0.99005901 1.5668063e+08 
  192200    279.57162  -0.99783154            0    3331.5684   0.96858395 1.572673e+08 
  192300     282.3688  -0.16689498            0    3365.7425    0.9756365 1.5768325e+08 
  192400    286.45095  -0.12202848            0    3414.4476   0.98801988 1.5796399e+08 
  192500    284.54833  -0.30319192            0    3391.5867   0.98006578 1.5816605e+08 
  192600    275.07317  -0.63163287            0     3278.312   0.94674694 1.5824968e+08 
  192700    278.47573  -0.15069749            0    3319.3523   0.95965049 1.5810152e+08 
  192800    283.82189  -0.12777329            0    3383.1028   0.98015416 1.577693e+08 
  192900    284.81058  -0.39097526            0    3394.6251   0.98600217 1.5734944e+08 
  193000     282.3392  -0.39035818            0    3365.1662   0.98040502 1.5687424e+08 
  193100    278.04038  -0.13704032            0    3314.1764   0.96906358 1.5632278e+08 
  193200    279.37449  -0.14046976            0     3330.076   0.97785939 1.5565964e+08 
  193300    288.98814  -0.45177987            0    3444.3618    1.0159191 1.5495086e+08 
  193400     287.0114  -0.32195254            0    3420.9284    1.0129903 1.5434822e+08 
  193500    281.32994  -0.13874521            0    3353.3871   0.99630552 1.5384733e+08 
  193600    281.72635  -0.14629229            0    3358.1049    1.0007278 1.533824e+08 
  193700    284.30548  -0.49061953            0    3388.5045    1.0124053 1.5296503e+08 
  193800     285.3756   -0.6956037            0    3401.0556     1.018207 1.5263772e+08 
  193900    279.77534  -0.14983462            0    3334.8448    1.0001453 1.5240825e+08 
  194000    277.88852  -0.31091665            0    3312.1924   0.99459524 1.5220386e+08 
  194100    285.20414  -0.31858815            0    3399.3887    1.0221246 1.5200569e+08 
  194200    287.33113  -0.58016095            0    3424.4814    1.0302525 1.5190904e+08 
  194300    282.36605  -0.15075681            0    3365.7258    1.0125066 1.5194176e+08 
  194400    280.31175  -0.13634485            0    3341.2524    1.0045399 1.5203422e+08 
  194500    281.95244  -0.29125137            0     3360.655    1.0095253 1.5215045e+08 
  194600    283.59577  -0.89348853            0    3379.6417     1.014202 1.5230822e+08 
  194700    284.19542  -0.16324628            0    3387.5199    1.0151394 1.5252812e+08 
  194800      282.544  -0.12808666            0    3367.8697    1.0073838 1.5281353e+08 
  194900     278.8486  -0.25024274            0    3323.6974   0.99205592 1.5312983e+08 
  195000    281.66818  -0.85289479            0    3356.7049    1.0013351 1.5342258e+08 
  195100    287.71969  -0.25970902            0    3429.4337    1.0196373 1.5372607e+08 
  195200    284.96681  -0.12543173            0    3396.7528    1.0074591 1.5411285e+08 
  195300    278.25144  -0.25835078            0     3316.571    0.9809205 1.5453549e+08 
  195400    280.42326  -0.98703227            0     3341.731   0.98674716 1.5489088e+08 
  195500    290.95843   -0.1473146            0    3468.1526    1.0213418 1.5521198e+08 
  195600    285.64055  -0.12741376            0     3404.782    1.0000805 1.5561676e+08 
  195700    279.36223  -0.35160408            0    3329.7186   0.97532252 1.5603256e+08 
  195800    280.64325  -0.58514039            0    3344.7552   0.97765439 1.5635407e+08 
  195900    286.95654  -0.13386662            0    3420.4626   0.99844806 1.5658856e+08 
  196000    286.19768  -0.13848685            0    3411.4122   0.99437396 1.5681367e+08 
  196100    278.72866  -0.71331965            0    3321.8046   0.96681643 1.570123e+08 
  196200    277.53116  -0.40559834            0    3307.8378   0.96247649 1.5707114e+08 
  196300    290.69767  -0.14125958            0    3465.0503    1.0088911 1.5698713e+08 
  196400    285.92357  -0.17917382            0     3408.104   0.99276764 1.5691186e+08 
  196500    279.45189  -0.65612694            0    3330.4829   0.97279172 1.5679539e+08 
  196600    280.85195  -0.16983932            0    3347.6582   0.97749448 1.5653758e+08 
  196700     287.2051  -0.11876549            0    3423.4405    1.0021144 1.5615273e+08 
  196800    286.72289  -0.35041938            0    3417.4608     1.002965 1.5573128e+08 
  196900    277.66631   -0.4050078            0    3309.4494   0.97413433 1.5526872e+08 
  197000    279.82382  -0.12923966            0    3335.4433   0.98576495 1.5466111e+08 
  197100    284.85103  -0.14239316            0    3395.3557    1.0081649 1.5394026e+08 
  197200    285.93306  -0.98381049            0    3407.4124    1.0167445 1.5320932e+08 
  197300    279.66545  -0.20599685            0    3333.4787   0.99899488 1.5251699e+08 
  197400    276.56611  -0.12879028            0     3296.611   0.99257739 1.5181123e+08 
  197500    285.42356  -0.18270979            0    3402.1402    1.0292198 1.5108931e+08 
  197600    287.55587  -0.99781125            0    3426.7427    1.0412861 1.504944e+08 
  197700     283.0236  -0.15376787            0    3373.5609    1.0274149 1.5008539e+08 
  197800    279.58547  -0.12728535            0    3332.6041    1.0168352 1.4980783e+08 
  197900    282.51928  -0.29346364            0    3367.4097     1.028675 1.4961831e+08 
  198000    288.89774  -0.49558435            0    3443.2404    1.0521629 1.4956291e+08 
  198100    285.02626  -0.12862152            0    3397.4584    1.0372139 1.4972262e+08 
  198200    276.45051  -0.24476993            0     3295.117    1.0037995 1.5003596e+08 
  198300    280.50332   -1.0586976            0    3342.6136    1.0155408 1.5038988e+08 
  198400    285.01973  -0.28389337            0    3397.2253    1.0295024 1.5082232e+08 
  198500    284.69738  -0.11954649            0     3393.547    1.0246292 1.5138778e+08 
  198600    279.97358   -0.1789957            0    3337.1787     1.003101 1.5206332e+08 
  198700    274.30316   -0.2882194            0    3269.4766   0.98133433 1.5274614e+08 
  198800    282.22277   -0.1885951            0    3363.9801    1.0027348 1.5333994e+08 
  198900     286.0275  -0.11629227            0    3409.4057     1.012512 1.5391576e+08 
  199000    283.15338  -0.26631476            0    3374.9954   0.99832343 1.5451625e+08 
  199100    279.16201  -0.60098822            0    3327.0825   0.98049127 1.5507754e+08 
  199200    282.28951  -0.13558522            0    3364.8285   0.98890015 1.555286e+08 
  199300    289.37718  -0.12930743            0    3449.3217    1.0112413 1.5591249e+08 
  199400    284.93269  -0.97623787            0    3395.4954   0.99306461 1.5630866e+08 
  199500    280.54715  -0.19916618            0    3343.9956   0.97570257 1.5665118e+08 
  199600    281.70536   -0.1178836            0     3357.883   0.97842035 1.5687143e+08 
  199700    283.91686  -0.26585683            0    3384.0968   0.98528259 1.5698303e+08 
  199800    284.25231   -1.4261476            0    3386.9351   0.98687581 1.5701996e+08 
  199900    281.70071  -0.13837604            0    3357.8071   0.97765777 1.5698842e+08 
  200000    273.14543  -0.14750586            0    3255.8169   0.94886061 1.5683875e+08 
Loop time of 51.3906 on 24 procs for 200000 steps with 4000 atoms

Performance: 336.248 ns/day, 0.071 hours/ns, 3891.764 timesteps/s
100.0% CPU use with 24 MPI tasks x no OpenMP threads

MPI task timing breakdown:
Section |  min time  |  avg time  |  max time  |%varavg| %total
---------------------------------------------------------------
Pair    | 0.99161    | 1.0424     | 1.1026     |   2.7 |  2.03
Neigh   | 34.364     | 34.891     | 35.264     |   3.9 | 67.89
Comm    | 8.5033     | 9.0437     | 9.7178     |   9.8 | 17.60
Output  | 0.049143   | 0.050304   | 0.07085    |   1.9 |  0.10
Modify  | 5.5013     | 5.6633     | 5.8564     |   4.8 | 11.02
Other   |            | 0.6997     |            |       |  1.36

Nlocal:    166.667 ave 184 max 141 min
Histogram: 3 0 0 2 4 2 4 2 1 6
Nghost:    32.2083 ave 41 max 26 min
Histogram: 5 2 2 1 6 1 1 2 3 1
Neighs:    1.75 ave 3 max 0 min
Histogram: 3 0 0 8 0 0 5 0 0 8

Total # of neighbors = 42
Ave neighs/atom = 0.0105
Neighbor list builds = 200000
Dangerous builds not checked
reset_timestep 0

# Ensemble set up and output
fix integrate_2 all npt temp ${Temp} ${Temp} 100.0 iso ${Pres} ${Pres} 1000.0
fix integrate_2 all npt temp 283.13 ${Temp} 100.0 iso ${Pres} ${Pres} 1000.0
fix integrate_2 all npt temp 283.13 283.13 100.0 iso ${Pres} ${Pres} 1000.0
fix integrate_2 all npt temp 283.13 283.13 100.0 iso 1 ${Pres} 1000.0
fix integrate_2 all npt temp 283.13 283.13 100.0 iso 1 1 1000.0

variable Dens equal density
fix DensAve all ave/time 10 50 500 v_Dens file Density.dat

dump		1 all xyz 100 trajec.xyz

# Run
thermo		100
run		10000
WARNING: One or more atoms are time integrated more than once (../modify.cpp:266)
Memory usage per processor = 4.5849 Mbytes
Step Temp E_pair E_mol TotEng Press Volume 
       0    273.14543  -0.14750586            0    3255.8169   0.94886061 1.5683875e+08 
     100    285.40107 -0.004411003            0    3402.0503   0.99442593 1.5638677e+08 
     200     287.5891 -0.00014657044            0    3428.1365    1.0055423 1.5584418e+08 
     300    278.74551 -0.00020866635            0    3322.7185   0.97787657 1.5532534e+08 
     400      283.908 -0.00026460142            0    3384.2567    1.0003423 1.5464912e+08 
     500    288.49903 -9.3543765e-05            0    3438.9832    1.0209556 1.5397706e+08 
     600    271.20938 -0.00029727099            0    3232.8859   0.96332383  1.53409e+08 
     700    283.52836 -0.0010164146            0    3379.7306    1.0123259 1.5261399e+08 
     800    288.55305 -9.9987181e-05            0    3439.6271    1.0352131 1.5188484e+08 
     900    279.21361 -0.0015585001            0    3328.2971    1.0047783 1.5142036e+08 
    1000    282.58128 -0.00023855359            0    3368.4419    1.0195131 1.5103202e+08 
    1100    288.15241 -0.0042450224            0    3434.8473     1.041103 1.5081534e+08 
    1200    276.67582 -0.015017754            0    3298.0325   0.99897668 1.5091364e+08 
    1300    275.89378 -0.00027534839            0    3288.7251   0.99521946 1.5105722e+08 
    1400    291.46753 -0.00046450315            0    3474.3681    1.0500341 1.5125341e+08 
    1500    280.51872 -0.0013150694            0    3343.8545    1.0064777 1.518713e+08 
    1600    278.98044 -0.00037762529            0    3325.5188    0.9955241 1.5270047e+08 
    1700    289.25099 -0.048489837            0    3447.8984    1.0255783 1.5367615e+08 
    1800     281.0671 -0.028821869            0    3350.3639   0.98806982 1.5499932e+08 
    1900    276.55588 -0.00018400041            0    3296.6177   0.96353143 1.5639955e+08 
    2000    288.49603 -0.0091333015            0    3438.9383   0.99722245 1.5763872e+08 
    2100    283.26164 -0.032945289            0    3376.5193   0.97160782 1.5885567e+08 
    2200    278.76599 -0.010710918            0    3322.9522   0.95043893 1.5981956e+08 
    2300    288.80842 -0.0047858095            0    3442.6665   0.98154833 1.6033004e+08 
    2400    282.34854 -0.00078060324            0     3365.667   0.95821391 1.6056147e+08 
    2500    278.64846 -0.037473662            0    3321.5244   0.94693821 1.6033894e+08 
    2600    291.32363 -0.0045303693            0    3472.6486   0.99464823 1.5959639e+08 
    2700    283.14423 -0.0023815732            0    3375.1502   0.97242794 1.5866017e+08 
    2800    281.62821 -0.00023696589            0    3357.0811   0.97461845 1.5745629e+08 
    2900    285.07906 -9.8593434e-05            0    3398.2163   0.99544892 1.5605039e+08 
    3000    281.40622 -0.0025774566            0    3354.4326    0.9913806 1.5467169e+08 
    3100    278.86076 -0.0063106006            0    3324.0862   0.99086701 1.5335153e+08 
    3200    288.99254 -0.0012049229            0    3444.8648    1.0348986 1.5216225e+08 
    3300     279.2089 -0.0059781175            0    3328.2366    1.0051849 1.5135596e+08 
    3400    283.26757   -0.5209528            0    3376.1019    1.0234858 1.5075405e+08 
    3500     287.9736  -0.16546074            0    3432.5545    1.0429185 1.5043915e+08 
    3600    279.44464 -0.00085202881            0    3331.0518    1.0118588 1.504853e+08 
    3700    282.76383 -0.0011463054            0     3370.617    1.0225196 1.506851e+08 
    3800    284.71266 -0.015360114            0    3393.8334    1.0268593 1.5108054e+08 
    3900    280.84848 -0.0010709824            0    3347.7857    1.0088316 1.5169509e+08 
    4000    281.56906 -0.0026335513            0    3356.3736    1.0067654 1.5239621e+08 
    4100    284.55889 -0.00052274541            0    3392.0153    1.0122603 1.5317868e+08 
    4200     280.4129 -5.2325156e-05            0    3342.5945    0.9918116 1.540591e+08 
    4300    284.48425 -0.00022017911            0    3391.1258    1.0007215 1.5490431e+08 
    4400    281.37109 -3.4784179e-05            0    3354.0164   0.98442951 1.5574474e+08 
    4500    278.58597 -4.747658e-05            0     3320.817   0.97029837 1.5644889e+08 
    4600    283.52151 -0.00065053141            0    3379.6492   0.98455602 1.5691479e+08 
    4700    287.62141 -0.00027593121            0    3428.5216   0.99660627 1.572592e+08 
    4800    284.45717 -0.0004231473            0    3390.8028   0.98362369 1.5758189e+08 
    4900    282.59348 -0.00035772869            0    3368.5873   0.97584219 1.5779781e+08 
    5000    285.68929 -0.00043860174            0      3405.49   0.98622103 1.5784764e+08 
    5100    282.79605 -0.0045001966            0    3370.9977   0.97652354 1.5780016e+08 
    5200    287.23543 -0.0024077594            0    3423.9184   0.99300742 1.5761704e+08 
    5300    285.90449 -0.060695037            0     3407.995   0.98967271 1.5740738e+08 
    5400     280.5528 -0.00076446844            0    3344.2614   0.97271939 1.5716118e+08 
    5500    283.45812 -0.00010071652            0    3378.8942   0.98536243 1.567514e+08 
    5600    285.77603 -6.6271958e-05            0    3406.5244    0.9965161 1.5626439e+08 
    5700    281.22326 -0.0002853533            0     3352.254   0.98364418 1.5578716e+08 
    5800    280.64564 -0.00090419435            0    3345.3679    0.9851535 1.5522891e+08 
    5900    286.06761 -0.0064364618            0    3409.9936    1.0082258 1.5460622e+08 
    6000     280.3373 -0.0057286511            0    3341.6877   0.99148982 1.5406676e+08 
    6100    286.00881 -0.00020508815            0     3409.299     1.015096 1.5352913e+08 
    6200    285.10605 -8.4909091e-05            0     3398.538     1.014508 1.5313325e+08 
    6300    281.28428 -0.0024256351            0    3352.9792    1.0023958 1.5290576e+08 
    6400    284.59088 -0.0034298413            0    3392.3937    1.0151889 1.5275357e+08 
    6500    285.18351 -0.00014916283            0    3399.4613    1.0172202 1.5276643e+08 
    6600    279.65322 -0.0033734796            0    3333.5356   0.99628373 1.529516e+08 
    6700    285.14601 -0.00070928264            0    3399.0137    1.0142241 1.531975e+08 
    6800     283.9639 -0.00033929487            0     3384.923    1.0073575 1.5360238e+08 
    6900    282.32178 -0.0001870646            0    3365.3487   0.99801716 1.5414337e+08 
    7000    285.13887  -0.20430998            0     3398.725    1.0038384 1.5475237e+08 
    7100    285.28065 -1.6570789e-05            0    3400.6194   0.99987806 1.5546901e+08 
    7200    281.44896 -3.7509341e-05            0    3354.9446   0.98160387 1.562363e+08 
    7300    286.08116 -2.6482511e-05            0    3410.1617   0.99339215 1.5692318e+08 
    7400    281.96919 -0.0006778929            0    3361.1452   0.97514611 1.5756156e+08 
    7500    281.40144 -0.00038823262            0    3354.3777   0.97045487 1.5800447e+08 
    7600     285.7875 -0.00052384377            0    3406.6606    0.9844092 1.5819251e+08 
    7700    286.18233 -0.0004125394            0    3411.3672   0.98556382 1.582255e+08 
    7800    280.61083 -0.00020779479            0    3344.9536   0.96712947 1.5810233e+08 
    7900    282.46491 -0.00022178874            0    3367.0548   0.97607994 1.5768762e+08 
    8000    289.56967 -0.0049653467            0    3451.7406    1.0045457 1.5707246e+08 
    8100    277.45194 -0.00065281472            0    3307.2985   0.96629011 1.5645827e+08 
    8200    278.93403 -0.00048269049            0    3324.9655   0.97669102 1.5561902e+08 
    8300    290.23275 -0.00022542198            0    3459.6495    1.0225551 1.5466006e+08 
    8400     281.7149 -7.7514351e-05            0    3358.1146   0.99728982 1.5392422e+08 
    8500    280.59283 -0.00037173485            0     3344.739   0.99752019 1.5327569e+08 
    8600    285.36687 -0.0025890657            0    3401.6445    1.0183009 1.5270209e+08 
    8700    283.09705 -0.00079223291            0    3374.5895    1.0125716 1.5234488e+08 
    8800    276.09087 -9.6464438e-05            0    3291.0747   0.98880285 1.5214611e+08 
    8900    284.26019 -6.6127258e-05            0    3388.4551     1.019268 1.5196591e+08 
    9000    283.65415 -0.00022871672            0    3381.2309    1.0170176 1.5197745e+08 
    9100    278.57937 -0.00033910846            0    3320.7381   0.99745926 1.5218513e+08 
    9200    284.98532  -0.13311411            0    3396.9658     1.018316 1.5247872e+08 
    9300    280.40043 -0.00017938697            0    3342.4456   0.99881727 1.5297171e+08 
    9400    280.03616 -5.2364741e-05            0    3338.1036   0.99373319 1.5355461e+08 
    9500    285.31003 -3.5629785e-05            0    3400.9695    1.0083537 1.541781e+08 
    9600    282.85753 -3.186462e-05            0    3371.7351   0.99480884 1.5493397e+08 
    9700    279.47522 -4.7056725e-05            0     3331.417   0.97807018 1.5570115e+08 
    9800    289.06806 -0.0005839715            0    3445.7657     1.007404 1.5635609e+08 
    9900    281.88386 -0.0037765708            0     3360.125    0.9780751 1.5704174e+08 
   10000    279.94158 -0.0036279214            0    3336.9726    0.9681577 1.5755727e+08 
Loop time of 3.09647 on 24 procs for 10000 steps with 4000 atoms

Performance: 279.027 ns/day, 0.086 hours/ns, 3229.483 timesteps/s
100.0% CPU use with 24 MPI tasks x no OpenMP threads

MPI task timing breakdown:
Section |  min time  |  avg time  |  max time  |%varavg| %total
---------------------------------------------------------------
Pair    | 0.018656   | 0.020385   | 0.022329   |   0.8 |  0.66
Neigh   | 1.9785     | 2.0155     | 2.0594     |   1.7 | 65.09
Comm    | 0.34927    | 0.41461    | 0.47326    |   5.1 | 13.39
Output  | 0.058883   | 0.058954   | 0.0598     |   0.1 |  1.90
Modify  | 0.52914    | 0.5517     | 0.57945    |   2.7 | 17.82
Other   |            | 0.03534    |            |       |  1.14

Nlocal:    166.667 ave 197 max 143 min
Histogram: 2 2 4 2 6 1 1 5 0 1
Nghost:    31.7083 ave 43 max 23 min
Histogram: 1 0 4 5 7 2 2 1 1 1
Neighs:    1.83333 ave 4 max 0 min
Histogram: 3 0 6 0 0 8 0 6 0 1

Total # of neighbors = 44
Ave neighs/atom = 0.011
Neighbor list builds = 10000
Dangerous builds not checked
Total wall time: 0:00:55
