LAMMPS (16 Feb 2016)
Reading restart file ...
  restart file = 16 Feb 2016, LAMMPS = 16 Feb 2016
  orthogonal box = (17.9352 17.9352 17.9352) to (64.0648 64.0648 64.0648)
  2 by 2 by 7 MPI processor grid
  9108 atoms
  6000 bonds
  3000 angles
Finding 1-2 1-3 1-4 neighbors ...
 Special bond factors lj:   0          0          0         
 Special bond factors coul: 0          0          0         
  2 = max # of 1-2 neighbors
  1 = max # of 1-3 neighbors
  1 = max # of 1-4 neighbors
  2 = max # of special neighbors
Setting atom values ...
  54 settings made for charge
Setting atom values ...
  54 settings made for charge
Setting atom values ...
  3000 settings made for charge
Setting atom values ...
  6000 settings made for charge
9000 atoms in group water
108 atoms in group NaCl
Finding SHAKE clusters ...
  0 = # of size 2 clusters
  0 = # of size 3 clusters
  0 = # of size 4 clusters
  3000 = # of frozen angles
Resetting global state of Fix integrate Style npt from restart file info
Resetting global state of Fix f1 Style ordern from restart file info
Resetting global state of Fix f3 Style ordern from restart file info
PPPM initialization ...
  G vector (1/distance) = 0.268475
  grid = 50 50 50
  stencil order = 5
  estimated absolute RMS force accuracy = 0.000377559
  estimated relative force accuracy = 1.13701e-06
  using double precision FFTs
  3d grid and FFT values/proc = 15360 5000
Neighbor list info ...
  1 neighbor list requests
  update every 1 steps, delay 0 steps, check yes
  max neighbors/atom: 2000, page size: 100000
  master list distance cutoff = 14.5
  ghost atom cutoff = 14.5
  binsize = 7.25, bins = 7 7 7
Setting up Verlet run ...
  Unit style  : real
  Current step: 0
  Time step   : 2
Memory usage per processor = 9.07169 Mbytes
Step Temp TempAve Press PressAve PotEng PEAve KinEng KEAve TotEng TEAve Density 
0	298.15            0    686.32574            0   -42801.015            0     5427.465            0    -37373.55            0   0.96765504 
100000    302.12887    298.13928    8.4656079    1.9070922   -42814.912   -42718.347    5499.8956    5427.2699   -37315.016   -37291.077   0.97099114 
200000    304.99981    298.13802   -61.209132     1.418916   -42686.574   -42726.064    5552.1576     5427.247   -37134.416   -37298.817   0.96610767 
300000    303.20151    298.11259    19.891246   0.88593559   -42847.987   -42722.901    5519.4217     5426.784   -37328.565   -37296.117     0.972054 
400000    294.06891    298.20948   -160.94362   0.56066502   -42798.198   -42718.998    5353.1738    5428.5478   -37445.025   -37290.451    0.9706982 
500000    299.06393    298.17965    26.221178    1.1083154   -42631.542   -42716.161     5444.102    5428.0047    -37187.44   -37288.156   0.96655404 
600000    301.85131    298.24157   -114.41755    1.1844002   -42677.426   -42717.561     5494.843     5429.132   -37182.583   -37288.429    0.9678554 
700000    295.70525    298.16395   -109.10382   0.73512076   -42577.247    -42721.95    5382.9612    5427.7191   -37194.286   -37294.231   0.96885718 
800000    299.97495     298.1045   -255.76252    1.2018488   -42685.089   -42729.574     5460.686    5426.6367   -37224.403   -37302.937   0.96325436 
900000    296.62211    298.12781   -171.67754   0.96794598   -42734.834   -42719.234    5399.6516    5427.0611   -37335.183   -37292.173   0.96362807 
1000000      299.695    298.21258    156.62927    1.2535537   -42624.387   -42720.981    5455.5899    5428.6042   -37168.798   -37292.377   0.96747867 
1100000    291.39342    298.11557   -17.258825    1.5507841   -42726.013   -42728.169    5304.4696    5426.8383   -37421.544   -37301.331   0.97012949 
1200000    298.54659    298.10577   -165.25509    1.1777144   -42700.511   -42728.261    5434.6845    5426.6598   -37265.827   -37301.601   0.96854373 
1300000    299.53486    298.14269   -177.54625   0.88487199   -42560.036   -42723.259    5452.6748    5427.3319   -37107.361   -37295.927   0.96536734 
1400000    289.04458     298.1419    172.97873     1.144636   -42752.927   -42712.687    5261.7118    5427.3176   -37491.216    -37285.37   0.96947758 
1500000    295.09791    298.25029   -143.17661   0.91903093   -42713.781   -42718.899    5371.9055    5429.2908   -37341.876   -37289.608   0.96634178 
1600000    296.45721     298.1434    80.355437     1.313703   -42654.103   -42725.101    5396.6498     5427.345   -37257.454   -37297.756   0.96606995 
1700000    297.68779    298.19616   -10.403667    1.4668359   -42801.449   -42715.078    5419.0512    5428.3053   -37382.398   -37286.773   0.96828723 
1800000    297.84974    298.12781   -333.46517    1.3875151   -42765.543   -42727.091    5421.9992     5427.061   -37343.543    -37300.03   0.96403304 
1900000    298.11441    298.14219   -118.49041   0.91667824   -42634.491   -42718.162    5426.8171    5427.3229   -37207.674   -37290.839   0.96339636 
2000000    305.81887    298.16548   -99.753534    1.3376397   -42659.363   -42722.842    5567.0677    5427.7469   -37092.295   -37295.095   0.96300269 
2100000    298.35695    298.14807   -492.62509    1.5854776   -42776.066   -42719.999    5431.2323    5427.4299   -37344.834   -37292.569   0.96450234 
2200000    295.95663    298.12422    336.33965    1.0748574   -42756.213   -42720.759    5387.5374    5426.9958   -37368.676   -37293.764   0.96962312 
2300000    298.76632    298.16401    228.17114    1.2924573   -42854.712   -42718.721    5438.6845      5427.72   -37416.027   -37291.001   0.97122618 
2400000    291.81197    298.22926    -136.6229   0.84455733    -42617.35   -42717.932    5312.0887    5428.9079   -37305.262   -37289.024   0.96672572 
2500000    303.15565    298.09081    -355.1477    1.3174603   -42829.227   -42722.895     5518.587    5426.3876    -37310.64   -37296.508   0.96692524 
2600000    300.18758    298.12594     130.7766     1.173424   -42756.808   -42729.823    5464.5568    5427.0271   -37292.251   -37302.796   0.96935477 
2700000    294.95142     298.1284    16.110001     1.074047   -42753.017   -42715.427    5369.2387    5427.0718   -37383.778   -37288.355   0.96608712 
2800000    297.69577    298.16142   -156.28099    1.3692433   -42741.691   -42714.724    5419.1962    5427.6729   -37322.495   -37287.051   0.96676376 
2900000    304.07172    298.16226    78.417488    1.2728024   -42786.903   -42723.152    5535.2629    5427.6883    -37251.64   -37295.464   0.96909421 
3000000    299.02913    298.21655   -291.08859   0.87400064   -42718.585   -42728.569    5443.4685    5428.6766   -37275.117   -37299.892   0.96497345 
3100000    300.97808    298.16836   -199.42275   0.95576588   -42789.718   -42719.799    5478.9469    5427.7993   -37310.771       -37292   0.96869212 
3200000     299.7059    298.14416    22.917888    1.1537019   -42735.268   -42719.481    5455.7884    5427.3587    -37279.48   -37292.122   0.96699065 
3300000    297.74966    298.08749   -461.09092     1.105022   -42532.199   -42719.781    5420.1773    5426.3272   -37112.022   -37293.454   0.96274767 
3400000    295.85927    298.15891    570.76172    1.0006711   -42695.683   -42721.317     5385.765    5427.6273   -37309.918    -37293.69   0.96952693 
3500000    296.67069    298.11283   0.10786682    1.8620491   -42764.049   -42720.424    5400.5359    5426.7884   -37363.513   -37293.635    0.9684433 
3600000    297.84314    298.16011    80.858264   0.75988311    -42661.36   -42727.908    5421.8789    5427.6491   -37239.481   -37300.259   0.96807165 
3700000    292.82173    298.12307    28.065754    1.2855966   -42740.007   -42727.405    5330.4703    5426.9748   -37409.537    -37300.43   0.96853354 
3800000    295.57474    298.21174    24.325805    0.9770678   -42856.147     -42722.9    5380.5855    5428.5889   -37475.561   -37294.311   0.97287367 
3900000    298.08234    298.11464   -363.45763    1.1161938   -42617.709   -42723.062    5426.2334    5426.8214   -37191.476   -37296.241   0.96637806 
4000000    302.12372    298.11445    263.49469    1.3408394   -42788.364   -42726.264    5499.8019    5426.8178   -37288.562   -37299.446   0.96867199 
4100000    297.03598     298.1606    -44.34941    1.4416413   -42747.922   -42722.839    5407.1857    5427.6581   -37340.736   -37295.181   0.96789084 
4200000    293.49178    298.11737    239.72505    1.2183159   -42716.482   -42715.797    5342.6676    5426.8711   -37373.814   -37288.926    0.9682937 
4300000     295.4722     298.1425   -260.48823    1.0793393   -42776.397   -42724.894    5378.7188    5427.3286   -37397.678   -37297.565   0.96614553 
4400000    294.97731    298.13049    183.95008   0.84875229   -42665.096   -42719.489      5369.71    5427.1098   -37295.387   -37292.379   0.96886596 
4500000    298.52218    298.26378   -97.184889    1.3779497   -42771.117   -42722.284    5434.2401    5429.5363   -37336.877   -37292.748   0.96674487 
4600000    300.27224    298.15942    496.77932   0.99295093   -42789.297   -42717.406     5466.098    5427.6366   -37323.199   -37289.769   0.97073604 
4700000    295.16343    298.21155   -315.58983   0.93554555   -42592.758   -42726.085    5373.0981    5428.5855    -37219.66     -37297.5   0.95956701 
4800000    297.45801    298.12518   -190.45943    1.1265551   -42839.476   -42726.444    5414.8683    5427.0133   -37424.608    -37299.43   0.97235375 
4900000     300.0387    298.14236    282.15563   0.74372318   -42746.517   -42728.083    5461.8466    5427.3259    -37284.67   -37300.757   0.96930265 
5000000    300.59865    298.10579   -197.65183   0.62557328   -42659.045    -42726.42    5472.0397    5426.6602   -37187.005    -37299.76   0.96090268 
5100000    299.75811    298.16122     -384.264    1.2476286   -42715.871   -42709.934    5456.7388    5427.6694   -37259.133   -37282.265   0.96540677 
5200000    296.90631     298.1466   -63.905142    1.0837886   -42764.778   -42724.461    5404.8251    5427.4032   -37359.953   -37297.058    0.9670133 
5300000    304.46659    298.19513    221.28443    1.5510724   -42776.634   -42722.044     5542.451    5428.2866   -37234.183   -37293.758   0.96965951 
5400000    294.63884    298.12182   -425.37047    1.2587228   -42687.389   -42721.015    5363.5486    5426.9521    -37323.84   -37294.063   0.96467422 
5500000    301.48501    298.11511    255.67862    1.1277106   -42706.668   -42725.858     5488.175    5426.8298   -37218.493   -37299.028   0.96819159 
5600000    301.38587    298.09408     90.30924    1.6544594   -42705.708   -42726.263    5486.3703     5426.447   -37219.338   -37299.816   0.96772522 
5700000    297.11419    298.09194   -390.53717    1.3626722    -42836.31   -42724.572    5408.6094    5426.4082   -37427.701   -37298.163   0.96806876 
5800000    298.53952    298.15718   -267.19988    1.1912085   -42640.975   -42721.311    5434.5559    5427.5958   -37206.419   -37293.715   0.96610436 
5900000    296.06934    298.14241    4.1516719   0.83915626   -42907.113   -42721.711    5389.5891    5427.3268   -37517.524   -37294.384   0.97090705 
6000000    297.65159    298.15329    46.509535    1.0064023   -42617.511   -42723.887    5418.3921     5427.525   -37199.119   -37296.362   0.96491473 
6100000    298.76593    298.24525     70.55225    1.3657938   -42714.508   -42719.726    5438.6772     5429.199   -37275.831   -37290.527   0.96250564 
6200000    297.25246     298.1581    244.96695    1.6627353   -42663.353   -42719.814    5411.1263    5427.6125   -37252.227   -37292.201   0.96829963 
6300000    299.37232    298.23322   -138.83177    1.1620788   -42713.131   -42715.591    5449.7158      5428.98   -37263.415   -37286.611   0.96420039 
6400000    301.75074    298.12823    21.038314    1.0558297   -42748.031   -42719.814    5493.0122    5427.0687   -37255.019   -37292.745   0.96779045 
6500000    297.92929    298.14256    29.383753    1.3508657    -42772.65    -42729.64    5423.4472    5427.3297   -37349.203    -37302.31   0.96878777 
6600000    296.89476    298.23641    148.90659    0.6820494   -42773.743   -42722.207    5404.6149    5429.0381   -37369.129   -37293.169   0.97057927 
6700000    292.92091    298.20932   -26.982313    1.2036475   -42695.418   -42722.227    5332.2758    5428.5449   -37363.142   -37293.682   0.96433385 
6800000    301.42368     298.0941   -102.81786     1.138716    -42675.41   -42726.134    5487.0585    5426.4474   -37188.352   -37299.687   0.96656131 
6900000    298.25909    298.09256    96.842433    1.3496286   -42599.655   -42724.506     5429.451    5426.4193   -37170.204   -37298.086   0.96500524 
7000000    294.21154    298.17364    296.52246    1.3545267   -42710.505   -42725.267    5355.7701    5427.8953   -37354.735   -37297.372   0.96940799 
7100000    298.88166     298.1348    142.04907    1.0257299   -42784.461    -42725.51    5440.7841    5427.1883   -37343.677   -37298.322   0.97301464 
7200000    295.55199     298.1466    539.00062    0.9846572   -42794.866   -42725.637    5380.1713    5427.4032   -37414.694   -37298.234   0.96990556 
7300000    293.96451    298.14257    263.10409    1.2119314   -42775.375   -42725.954    5351.2732    5427.3298   -37424.102   -37298.624    0.9688853 
7400000    297.82722    298.15904    104.62722    1.1314383    -42664.13   -42719.423    5421.5892    5427.6295   -37242.541   -37291.794   0.96663185 
7500000    299.86295    298.24217    275.45654   0.93093014   -42702.595   -42720.799    5458.6473    5429.1429   -37243.948   -37291.656   0.97082803 
7600000    298.03887    298.12137   -7.6889266   0.54017614   -42728.197   -42727.322     5425.442    5426.9438   -37302.755   -37300.378   0.96900533 
7700000    298.71282    298.14012    143.16804    1.6705599   -42722.173   -42731.903    5437.7106    5427.2853   -37284.462   -37304.618    0.9675187 
7800000    297.01915     298.1297    78.857778    1.1794524   -42685.129   -42725.095    5406.8793    5427.0956   -37278.249       -37298   0.96860301 
7900000    301.92623    298.21305   -341.88488   0.97432832   -42585.181   -42718.689    5496.2068    5428.6128   -37088.975   -37290.076   0.96169217 
8000000    299.73049    298.15506    79.799727     1.358819   -42682.524   -42721.014    5456.2359    5427.5572   -37226.288   -37293.457    0.9674833 
8100000    301.31021    298.10066   -568.66492    1.4768298   -42548.345   -42733.001    5484.9929    5426.5669   -37063.352   -37306.434   0.96116794 
8200000    301.04702    298.14097   -225.12087     0.970457   -42683.192   -42719.447    5480.2018    5427.3006    -37202.99   -37292.146   0.96506208 
8300000    298.13021    298.12551    79.334952   0.80386239   -42651.852   -42718.475    5427.1048    5427.0193   -37224.748   -37291.456    0.9690109 
8400000    304.12475    298.14578   -122.37739    1.0606666   -42718.367   -42724.906    5536.2282    5427.3883   -37182.139   -37297.518   0.96409031 
8500000    298.89634    298.15962    86.787908    1.2919657   -42667.393   -42720.843    5441.0512    5427.6402   -37226.342   -37293.202   0.96609002 
8600000    297.79814    298.14938   -231.18532    1.0480998   -42659.137   -42726.676    5421.0599    5427.4537   -37238.077   -37299.222   0.96334701 
8700000    299.93511    298.16345     199.1064    1.2174185   -42761.418   -42721.045    5459.9609    5427.7099   -37301.457   -37293.335   0.97075545 
8800000     301.5186    298.16785   -212.76784    1.2720435   -42700.791   -42715.909    5488.7864    5427.7899   -37212.005   -37288.119   0.96470979 
8900000    296.24903    298.15213   -551.93275    1.2526348   -42757.741   -42717.725    5392.8601    5427.5038   -37364.881   -37290.221   0.96201805 
9000000    295.05281    298.15356   -181.78294    1.0307373   -42672.547   -42726.526    5371.0845    5427.5299   -37301.463   -37298.996   0.96490884 
9100000    296.56508    298.09033   -183.83959    1.2568348   -42731.337   -42721.268    5398.6135    5426.3788   -37332.724   -37294.889   0.96963015 
9200000    297.22471    298.10869    328.16597    1.5113532   -42826.332   -42729.949    5410.6212    5426.7131    -37415.71   -37303.236   0.97154836 
9300000    296.04465    298.10969    373.32368   0.83937511   -42671.614   -42725.202    5389.1396    5426.7313   -37282.474   -37298.471   0.97065816 
9400000    299.54322    298.11516   -390.04124    1.0067314   -42699.632   -42724.041     5452.827    5426.8307   -37246.805    -37297.21   0.96472376 
9500000    293.45817    298.26711   -344.88246    1.1193437   -42834.774   -42717.714    5342.0559     5429.597   -37492.718   -37288.117   0.96856719 
9600000    302.58345    298.10895   -63.897648    1.3008125   -42754.001    -42718.13    5508.1707    5426.7178    -37245.83   -37291.412   0.96948253 
9700000    296.24684    298.07196    160.38145    1.2669813   -42622.558   -42732.886    5392.8202    5426.0443   -37229.738   -37306.842   0.96769726 
9800000    297.13799    298.15496    235.02112    1.3376766   -42694.943   -42718.998    5409.0425    5427.5553     -37285.9   -37291.443    0.9683287 
9900000    301.88369    298.09722    113.88951    1.1386349   -42810.858   -42720.806    5495.4323    5426.5043   -37315.426   -37294.302   0.97081126 
10000000     294.5564      298.225    133.56907    1.0798626   -42661.836   -42721.957    5362.0479    5428.8303   -37299.788   -37293.127   0.96528857 
10100000    302.67459     298.1148    216.41281       1.3702   -42812.624   -42721.263    5509.8299    5426.8243   -37302.794   -37294.438    0.9713941 
10200000    296.00979    298.10317     165.3025    1.0106138     -42573.9   -42729.633    5388.5051    5426.6126   -37185.395    -37303.02    0.9638777 
10300000    300.20478    298.14494   -123.77786    1.4104423   -42823.798    -42719.09    5464.8698    5427.3729   -37358.928   -37291.718   0.96444423 
10400000    301.03895    298.12473    237.45774    1.2253079    -42764.13   -42719.739     5480.055     5427.005   -37284.075   -37292.734   0.97106201 
10500000    298.35138    298.15166   -35.196774     1.033586   -42714.256   -42716.886     5431.131    5427.4953   -37283.125   -37289.391   0.96397846 
10600000    294.91922    298.09257    164.17485    1.3528017   -42716.319   -42724.705    5368.6525    5426.4196   -37347.666   -37298.285    0.9697287 
10700000    302.20313    298.13526    104.57223    1.3617601   -42768.166     -42721.3    5501.2475    5427.1968   -37266.918   -37294.103   0.96692295 
10800000    301.45857    298.22337   -45.738902   0.83246356   -42839.359   -42722.862    5487.6936    5428.8007   -37351.666   -37294.062   0.96958841 
10900000    298.33894    298.08855    151.56966    1.1655771   -42878.552   -42725.987    5430.9045    5426.3465   -37447.648    -37299.64   0.97141825 
11000000    297.61354    298.23596    300.27651    1.6926686   -42544.374   -42715.353    5417.6994    5429.0299   -37126.675   -37286.323   0.96882469 
11100000    299.56041     298.2417     117.0116    1.1463811   -42751.798   -42714.804      5453.14    5429.1343   -37298.658    -37285.67   0.97081348 
11200000    297.26959    298.18427    374.19532   0.94473813   -42701.479   -42727.487    5411.4382     5428.089   -37290.041   -37299.398   0.96999009 
11300000    297.63961    298.18166    560.95302    1.4895695   -42902.554   -42725.034     5418.174    5428.0414    -37484.38   -37296.993   0.97088393 
11400000    301.23686    298.09145   -629.64411    1.1541989   -42664.038   -42729.624    5483.6577    5426.3993    -37180.38   -37303.225   0.96258956 
11500000     300.0489    298.12265    223.96641    1.1640754   -42632.684   -42725.981    5462.0323    5426.9672   -37170.651   -37299.013   0.96636922 
11600000    302.28968    298.14828   -285.65379    1.0739556    -42645.86   -42723.454     5502.823    5427.4337   -37143.037   -37296.021   0.95943525 
11700000    297.94012    298.14889   -234.80262    1.2132139   -42740.151   -42716.804    5423.6444    5427.4448   -37316.507   -37289.359   0.96737112 
11800000    294.31339    298.09697    575.56106    1.2568261   -42857.951   -42723.562    5357.6241    5426.4998   -37500.327   -37297.062   0.97441714 
11900000    294.81258    298.20575   -639.91056     1.098155   -42651.023   -42724.101    5366.7113    5428.4799   -37284.312   -37295.622   0.96368269 
12000000    296.29286    298.02362   -181.07425    1.7563938   -42872.617   -42723.058     5393.658    5425.1644   -37478.959   -37297.894   0.97144819 
12100000    302.22653     298.1341   -125.42254   0.59381178   -42712.828   -42729.038    5501.6735    5427.1755   -37211.154   -37301.863   0.96775451 
12200000    301.68892    298.15792    261.22658    1.9589453   -42688.777   -42717.335    5491.8868    5427.6092   -37196.891   -37289.725   0.96973315 
12300000    299.09435    298.23779   -268.83896    1.2448867   -42600.519   -42721.303    5444.6559    5429.0632   -37155.863    -37292.24   0.96602583 
12400000    302.31363    298.17611    108.14599    1.1897712   -42618.587   -42730.138    5503.2589    5427.9404   -37115.328   -37302.198   0.96450507 
12500000     297.4181    298.13743    -48.36848    1.1215377   -42775.051   -42724.247    5414.1416    5427.2363   -37360.909    -37297.01   0.96550025 
12600000    300.01971     298.1504     122.2132    1.4465958   -42693.405   -42725.371    5461.5009    5427.4723   -37231.904   -37297.899   0.96770964 
12700000    302.71689    298.11611   -148.12401    1.2144344   -42719.245   -42725.834    5510.5998    5426.8482   -37208.645   -37298.986   0.96490614 
12800000    291.98362    298.25578   -284.79909    1.3323907   -42909.134   -42716.792    5315.2134    5429.3907   -37593.921   -37287.401   0.96721891 
12900000    301.66405    298.08865   -67.469906    1.0252312   -42680.167   -42723.318    5491.4342    5426.3482   -37188.733    -37296.97    0.9660162 
13000000    296.95363    298.17962    148.88775    1.5755126   -42739.422   -42721.921    5405.6866    5428.0043   -37333.735   -37293.916   0.96769953 
13100000    295.72056    298.09549    161.29792    1.3687825   -42797.992   -42723.684      5383.24    5426.4727   -37414.752   -37297.211     0.971016 
13200000     296.1266    298.05343   -55.874337   0.58888265   -42619.099   -42723.126    5390.6315    5425.7072   -37228.468   -37297.418   0.96676551 
13300000    291.08294    298.09417   -374.63393    1.3259499   -42847.706   -42727.461    5298.8176    5426.4487   -37548.888   -37301.013   0.96679305 
13400000    292.86509    298.15534   -578.40359   0.77088861   -42689.648   -42722.327    5331.2595    5427.5623   -37358.388   -37294.764     0.965177 
13500000    303.31937    298.12481   -155.95287   0.92840956   -42841.001   -42724.573    5521.5672    5427.0065   -37319.433   -37297.567   0.96762161 
13600000    300.57482    298.11111    49.625512    1.6447696   -42856.936   -42723.597     5471.606    5426.7572    -37385.33    -37296.84   0.96627377 
13700000    297.52657    298.24644   -136.79948    1.4363144   -42756.022   -42719.349    5416.1162    5429.2205   -37339.905   -37290.128   0.96554779 
13800000     298.1702     298.1633    286.70904   0.82203977   -42720.359   -42723.208    5427.8327    5427.7071   -37292.526     -37295.5   0.96927637 
13900000     296.3784    298.13477   0.50860981     1.071174   -42787.764   -42719.412    5395.2152    5427.1879   -37392.549   -37292.224   0.96908112 
14000000    303.60011    298.17971    315.75736     1.126776   -42564.121   -42722.609    5526.6777    5428.0058   -37037.444   -37294.603   0.96455008 
14100000    301.48182    298.15045   -127.02669    1.4415578   -42644.734   -42722.741    5488.1169    5427.4732   -37156.617   -37295.268   0.96427198 
14200000    298.24607    298.10525     335.1214    1.0025884   -42747.477    -42728.38    5429.2139    5426.6504   -37318.263    -37301.73   0.97049273 
14300000    298.73362    298.16107   -95.679801    1.5127166   -42537.664   -42725.798    5438.0891    5427.6666   -37099.575   -37298.131   0.96397396 
14400000     294.4573    298.15933    436.93031    1.1108861     -42753.5   -42723.147    5360.2439    5427.6348   -37393.256   -37295.512    0.9671932 
14500000    300.37027    298.09003   -352.63184    1.3157228   -42769.024   -42728.364    5467.8823    5426.3733   -37301.141   -37301.991   0.96443522 
14600000    298.18155    298.21596    157.42692    1.0833665   -42767.125   -42719.566    5428.0393    5428.6658   -37339.086     -37290.9   0.96765716 
14700000    296.91654    298.07407    106.35151    1.2872737   -42463.967   -42720.508    5405.0115    5426.0828   -37058.956   -37294.425   0.96284561 
14800000    292.15718    298.17434   -418.88754   0.81450755   -42695.598   -42723.597     5318.373    5427.9082   -37377.225   -37295.688   0.96148776 
14900000    297.68821     298.1542   -234.12745   0.77688256   -42901.807   -42721.475    5419.0587    5427.5414   -37482.748   -37293.934   0.97034024 
15000000     301.9387    298.16598    151.76902    1.3962154   -42723.536   -42728.873    5496.4339     5427.756   -37227.102   -37301.116   0.96914275 
15100000    297.83986    298.16874    251.50369    1.3574935   -42772.877   -42718.193    5421.8192    5427.8061   -37351.057   -37290.386   0.96908707 
15200000    297.51797    298.15079   -35.270686   0.54840028   -42733.408   -42725.226    5415.9596    5427.4794   -37317.448   -37297.747   0.96914463 
15300000    303.24474    298.12012    318.97611    1.1177986   -42805.788   -42725.054    5520.2088    5426.9212   -37285.579   -37298.133   0.97082274 
15400000    298.81103    298.12904    240.95714    1.0061766   -42751.463   -42723.769    5439.4982    5427.0834   -37311.965   -37296.686   0.96979459 
15500000     301.6412     298.1743   -294.08958     1.182155   -42779.104   -42721.725    5491.0182    5427.9075   -37288.086   -37293.818   0.96771707 
15600000    298.44284    298.12455    252.30013   0.83013403   -42644.042   -42720.866    5432.7959    5427.0017   -37211.246   -37293.864   0.96823305 
15700000      297.808    298.14723    460.78127    1.1148412   -42773.304   -42723.912    5421.2393    5427.4147   -37352.064   -37296.497   0.96995103 
15800000    298.67773    298.15718    45.905171    1.4515793   -42763.457   -42721.203    5437.0717    5427.5957   -37326.385   -37293.608   0.96773605 
15900000    304.91511    298.16729   -280.91752    1.2716779   -42771.278   -42720.298    5550.6158    5427.7799   -37220.662   -37292.519   0.96724344 
16000000    295.08252    298.13431  -0.99864048   0.85798943   -42804.395   -42723.494    5371.6253    5427.1795    -37432.77   -37296.314    0.9697527 
16100000    297.33859    298.14346   -152.55072    1.1825893    -42637.85   -42718.428    5412.6942     5427.346   -37225.155   -37291.082   0.96390924 
16200000    297.38663    298.25653   -459.54975   0.94700676   -42768.621   -42719.026    5413.5689    5429.4044   -37355.052   -37289.621   0.96691464 
16300000    294.71855    298.14522   -75.741021    1.3333598   -42733.032   -42719.975    5364.9996     5427.378   -37368.032   -37292.597   0.96981759 
16400000    295.95005    298.08936   -309.99584    1.2808833   -42651.968   -42729.859    5387.4175    5426.3611   -37264.551   -37303.498   0.96378242 
16500000    304.03675    298.27153     211.0499   0.78586199   -42724.865   -42720.939    5534.6264    5429.6773   -37190.238   -37291.262   0.96957178 
16600000    299.10514    298.18224     124.1221   0.79808255   -42737.133   -42717.173    5444.8522    5428.0519   -37292.281   -37289.121   0.96553223 
16700000    303.72924    298.18853   -247.75357     1.146482   -42528.749   -42722.149    5529.0285    5428.1664    -36999.72   -37293.982    0.9598446 
16800000     301.0957    298.14835   -84.410343    1.6218057   -42676.248   -42724.849     5481.088     5427.435    -37195.16   -37297.414   0.96653752 
16900000    293.91668    298.16783    214.30947   0.99893915   -42690.231   -42722.781    5350.4024    5427.7897   -37339.829   -37294.991   0.96940218 
17000000    302.22428    298.18682   -39.827871    1.1540379    -42790.41   -42715.344    5501.6324    5428.1354   -37288.777   -37287.209   0.96910458 
17100000    297.01912    298.13017   -91.857062    1.1729551   -42779.684   -42723.746    5406.8788    5427.1041   -37372.805   -37296.642   0.96790111 
17200000    302.43179    298.15375   -86.579452    1.0312515   -42609.746   -42718.281      5505.41    5427.5333   -37104.336   -37290.748   0.96820794 
17300000    300.66769    298.18039    107.70067   0.83330135   -42833.047   -42717.488    5473.2966    5428.0182   -37359.751    -37289.47   0.97111848 
17400000    301.54569     298.2074   -26.934792   0.93449403   -42748.061   -42723.055    5489.2795      5428.51   -37258.782   -37294.545    0.9636501 
17500000    295.49124    298.05661    89.937205    1.2680577   -42613.097   -42726.267    5379.0655    5425.7651   -37234.031   -37300.502   0.96450999 
17600000    296.83283    298.19666    122.33098    1.2374954   -42806.189   -42725.024    5403.4875    5428.3145   -37402.701   -37296.709     0.969008 
17700000    295.22504    298.16133      103.086    1.2282753   -42573.262   -42726.668    5374.2196    5427.6713   -37199.043   -37298.996   0.96143398 
17800000    300.55591    298.06547   -88.897193   0.46537413   -42723.893   -42725.928    5471.2617    5425.9262   -37252.631   -37300.002   0.96375201 
17900000    301.32317    298.15949   -357.31838    1.4764232   -42662.174   -42724.838    5485.2289    5427.6378   -37176.945     -37297.2   0.96698981 
18000000    299.24875    298.16279    -293.2122   0.87858993   -42704.285   -42724.621    5447.4665    5427.6979   -37256.819   -37296.923   0.96630731 
18100000    298.15056    298.09973    -61.65952    1.6491583   -42588.921   -42723.389    5427.4752    5426.5499   -37161.446    -37296.84    0.9627504 
18200000    296.70707    298.13505   -156.35871   0.85606167    -42798.74   -42731.392    5401.1982    5427.1928   -37397.542   -37304.199   0.96778414 
18300000     303.9449     298.1255    260.23723     1.354889   -42700.175   -42721.975    5532.9544    5427.0191   -37167.221   -37294.956    0.9687336 
18400000    299.15047    298.09448    403.35354    1.3559548     -42798.9   -42724.389    5445.6775    5426.4543   -37353.223   -37297.935   0.97392664 
18500000     294.1817    298.10908     212.4961    0.6722224   -42720.964   -42725.862    5355.2269    5426.7202   -37365.737   -37299.142   0.97028626 
18600000    299.20439     298.1592   -105.70636   0.96524312   -42829.495   -42720.589    5446.6589    5427.6325   -37382.836   -37292.956   0.96885316 
18700000    300.62313     298.1203    -33.22208   0.94708339   -42579.727   -42727.559    5472.4854    5426.9244   -37107.242   -37300.634   0.96117535 
18800000    296.34934    298.15692    452.59039    0.8768484   -42760.729   -42731.072    5394.6862     5427.591   -37366.043   -37303.481   0.97174059 
18900000    295.49201    298.07662   -375.78226    1.3330436   -42725.998   -42729.338    5379.0794    5426.1292   -37346.918   -37303.209   0.96325968 
19000000    297.89476    298.15233    -24.86821     1.080504   -42729.553   -42716.823    5422.8188    5427.5074   -37306.734   -37289.316   0.96574074 
19100000    293.52266     298.0982     73.94878   0.89469601   -42803.323   -42719.109    5343.2298    5426.5221   -37460.093   -37292.587   0.96913664 
19200000    298.49925    298.11437   -322.08888    1.5775903   -42596.401   -42723.755    5433.8228    5426.8164   -37162.578   -37296.938    0.9619408 
19300000    296.61357    298.08648    37.369236    1.1976382   -42603.289   -42722.953    5399.4963    5426.3088   -37203.793   -37296.645   0.96442525 
19400000    294.53685    298.05711   -141.25814    1.2319443   -42595.567   -42726.785    5361.6919     5425.774   -37233.875   -37301.011    0.9638724 
19500000    300.65199    298.23394     138.7524      1.01228   -42694.088   -42722.686    5473.0108    5428.9931   -37221.077   -37293.693    0.9667279 
19600000    295.68763    298.17353    291.50164    1.0488096   -42668.145   -42725.746    5382.6406    5427.8934   -37285.505   -37297.852    0.9665465 
19700000    294.03136      298.215   -135.28345    1.0688743   -42769.311   -42721.714    5352.4901    5428.6483   -37416.821   -37293.066   0.96727175 
19800000    297.49369    298.16882   -322.51557   0.93556184   -42677.921   -42724.662    5415.5177    5427.8076   -37262.404   -37296.854   0.96181962 
19900000    298.58066    298.13695    224.80935     1.124258   -42811.029   -42722.413    5435.3047    5427.2275   -37375.725   -37295.185   0.96986771 
20000000    302.49713    298.16811   -530.88003    1.1481088   -42705.421   -42716.453    5506.5994    5427.7946   -37198.822   -37288.658   0.96289234 
20100000    296.73859    298.21721   -337.37143   0.99598794   -42690.505   -42725.959     5401.772    5428.6886   -37288.733    -37297.27   0.96647864 
20200000    296.34467     298.1068    183.88733    1.1151868   -42789.963   -42728.082    5394.6012    5426.6786   -37395.362   -37301.403   0.96995059 
20300000    293.18644    298.17583    426.67607    1.1234671    -42694.75   -42724.848    5337.1093    5427.9353   -37357.641   -37296.912   0.97044055 
20400000    300.96368    298.21553   -62.754141    1.0793038   -42828.685   -42723.105    5478.6847    5428.6579       -37350   -37294.447   0.96720196 
20500000    295.26756    298.05817    130.24214    1.2174337   -42687.032   -42723.533    5374.9937    5425.7935   -37312.039    -37297.74   0.96660155 
20600000    293.56834    298.17816    36.811687    1.4791646   -42841.299    -42723.73    5344.0613    5427.9776   -37497.238   -37295.753   0.96852169 
20700000     299.1013    298.14795   -36.903799    1.1055415   -42848.805   -42721.737    5444.7823    5427.4278   -37404.022   -37294.309   0.96670939 
20800000    298.17372    298.13898   -496.50412     1.449466   -42604.041   -42723.075    5427.8968    5427.2645   -37176.144    -37295.81   0.96309911 
20900000    295.82637    298.11707   -177.22937    1.2430619   -42719.736   -42722.452    5385.1662    5426.8657    -37334.57   -37295.586    0.9657349 
21000000    293.40919    298.16355   -219.07558   0.69727483    -42643.83   -42730.016    5341.1642    5427.7117   -37302.666   -37302.305   0.96313621 
21100000    294.85027    298.09923   -336.32892    1.5875515   -42691.681   -42723.196    5367.3974    5426.5408   -37324.284   -37296.655   0.96525265 
21200000    296.37341     298.2814    18.065561    1.0343105   -42816.154   -42716.511    5395.1244     5429.857    -37421.03   -37286.654   0.96917542 
21300000    300.74648    298.16465    249.04525    1.1370515   -42717.699   -42720.693    5474.7309    5427.7318   -37242.968   -37292.961    0.9692641 
21400000    295.28294    298.15257   -120.95383    1.4224076   -42710.295   -42725.849    5375.2737    5427.5119   -37335.021   -37298.337   0.96622017 
21500000     299.9307    298.12467   -84.414706   0.94438197   -42651.942   -42716.215    5459.8805     5427.004   -37192.061   -37289.211     0.966318 
21600000    295.78842    298.08555    47.842624     1.392542   -42808.293   -42728.088    5384.4753    5426.2919   -37423.817   -37301.796   0.96898496 
21700000    299.41908    298.10965   -591.25401   0.75179423   -42628.867   -42723.187    5450.5672    5426.7306     -37178.3   -37296.457   0.96140483 
21800000      302.698    298.08972   -215.90805   0.91946889   -42834.879   -42725.324    5510.2559    5426.3677   -37324.623   -37298.956   0.96780143 
21900000    302.48031    298.14564   -48.066884    1.4656339   -42768.925   -42723.897    5506.2932    5427.3858   -37262.631   -37296.511   0.96868328 
22000000    303.69303    298.16721   -142.40715    1.2905413   -42787.124    -42717.27    5528.3694    5427.7784   -37258.755   -37289.492    0.9669563 
22100000    296.13774    298.20788   -395.06126   0.68364036   -42588.001   -42717.527    5390.8343    5428.5186   -37197.167   -37289.008   0.96534561 
22200000    298.72637    298.16545    256.44281   0.94962646   -42661.018    -42722.89    5437.9571    5427.7463   -37223.061   -37295.144   0.96925827 
22300000    297.83368    298.10159    406.21844    1.5551249   -42621.844   -42733.158    5421.7067    5426.5838   -37200.138   -37306.574   0.96920596 
22400000    295.16773    298.10508   -234.49927    1.4487753   -42730.117   -42729.351    5373.1763    5426.6473   -37356.941   -37302.703    0.9648696 
22500000    298.61055    298.17193    255.34427    1.2151084   -42837.297   -42728.127    5435.8488    5427.8643   -37401.449   -37300.262   0.96940096 
22600000    298.01698    298.17054   -339.34594    1.6677809   -42819.576   -42729.735    5425.0435     5427.839   -37394.532   -37301.896   0.96773391 
22700000    301.52178    298.10068   -84.416157    1.4051921   -42812.285   -42719.248    5488.8443    5426.5672    -37323.44   -37292.681     0.971109 
22800000    294.48122    298.17903   -69.765006    1.5741152    -42819.67   -42725.152    5360.6793    5427.9935   -37458.991   -37297.159   0.97022742 
22900000      301.259    298.16719   -196.85702   0.63216603   -42837.738   -42720.855    5484.0606     5427.778   -37353.678   -37293.077   0.96667183 
23000000    305.19343    298.10941   -129.24508    1.1362376    -42745.03   -42720.388    5555.6823    5426.7262   -37189.348   -37293.662   0.96460467 
23100000    301.73052    298.20703   -9.5339023   0.98098856   -42713.288   -42720.128    5492.6442    5428.5033   -37220.644   -37291.625   0.96944232 
23200000    299.16579    298.21624     321.5278    1.4851467    -42625.17   -42722.469    5445.9563    5428.6708   -37179.213   -37293.798   0.96853536 
23300000    295.54881    298.18302   -29.685504    1.1260666   -42525.413    -42725.22    5380.1135    5428.0661     -37145.3   -37297.154    0.9604585 
23400000    303.05424    298.17092    98.412375    1.3746404    -42786.86   -42717.893    5516.7409    5427.8459   -37270.119   -37290.047   0.96987959 
23500000    303.65711     298.1104     52.42636    1.3835448   -42829.876   -42723.377    5527.7155    5426.7441   -37302.161   -37296.633   0.96985535 
23600000    294.34296    298.13654   -79.934468    1.0883678   -42852.929   -42722.993    5358.1625    5427.2201   -37494.767   -37295.773   0.96902192 
23700000     300.0351    298.12423    422.60188    1.6553763   -42680.702   -42730.764    5461.7811     5426.996   -37218.921   -37303.768   0.96862846 
23800000    297.82812    298.12326   -91.624302    1.3799777   -42819.042   -42724.082    5421.6057    5426.9783   -37397.437   -37297.104   0.96896823 
23900000    298.61346    298.18541   -75.270909   0.97900994   -42899.471   -42724.702    5435.9018    5428.1096    -37463.57   -37296.593   0.97095694 
24000000    298.19934    298.17994   -239.57961    1.0957717   -42553.985   -42719.351    5428.3632      5428.01   -37125.622   -37291.341   0.96257977 
24100000    300.23706    298.10438   -124.03745    1.3276646    -42609.89   -42719.172    5465.4575    5426.6346   -37144.432   -37292.537   0.96508078 
24200000    304.24541    298.18397    418.92899    1.1744957   -42771.392   -42719.787    5538.4246    5428.0834   -37232.967   -37291.704     0.971737 
24300000    300.99946    298.11507   -243.98918    1.2810607   -42685.602   -42726.791     5479.336    5426.8293   -37206.266   -37299.962   0.96266813 
24400000    296.37917    298.16003    -86.80561    1.5195893   -42838.773   -42725.595    5395.2293    5427.6477   -37443.544   -37297.947   0.96677584 
24500000    296.88787    298.08278   -38.561369   0.85033526   -42733.663   -42729.579    5404.4895    5426.2414   -37329.174   -37303.338     0.967359 
24600000    299.58349     298.1822   -33.945211   0.99483369   -42649.101   -42725.415      5453.56    5428.0512   -37195.541   -37297.364   0.96448372 
24700000    299.45053    298.25533   -402.07127    1.1328534   -42616.999   -42716.279    5451.1396    5429.3825   -37165.859   -37286.897   0.96198186 
24800000    296.80557     298.1424    200.77157   0.79138388   -42641.648   -42725.375    5402.9912    5427.3267   -37238.656   -37298.048   0.96433253 
24900000    299.72032    298.12425    204.87497   0.67850822   -42679.338   -42721.493    5456.0509    5426.9963   -37223.287   -37294.496   0.96597227 
25000000    303.88289    298.14009   -210.35017    1.1938682   -42666.115   -42722.886    5531.8254    5427.2846   -37134.289   -37295.602    0.9664907 
Loop time of 240718 on 28 procs for 25000000 steps with 9108 atoms

Performance: 17.946 ns/day, 1.337 hours/ns, 103.856 timesteps/s
100.0% CPU use with 28 MPI tasks x no OpenMP threads

MPI task timing breakdown:
Section |  min time  |  avg time  |  max time  |%varavg| %total
---------------------------------------------------------------
Pair    | 96035      | 1.0642e+05 | 1.1312e+05 |1548.0 | 44.21
Bond    | 12.454     | 14.992     | 18.35      |  42.0 |  0.01
Kspace  | 61155      | 67867      | 78232      |1944.9 | 28.19
Neigh   | 14961      | 14984      | 15014      |  13.8 |  6.22
Comm    | 13458      | 13797      | 14046      | 144.1 |  5.73
Output  | 0.57071    | 3.1384     | 3.2382     |  27.9 |  0.00
Modify  | 20885      | 33146      | 36389      |3034.7 | 13.77
Other   |            | 4485       |            |       |  1.86

Nlocal:    325.286 ave 345 max 312 min
Histogram: 5 1 1 6 7 3 2 2 0 1
Nghost:    8615.11 ave 8667 max 8560 min
Histogram: 2 1 5 2 2 3 6 3 2 2
Neighs:    192211 ave 205236 max 178256 min
Histogram: 2 1 2 4 4 5 2 3 4 1

Total # of neighbors = 5381907
Ave neighs/atom = 590.899
Ave special neighs/atom = 1.97628
Neighbor list builds = 2647612
Dangerous builds = 0
 All done! 

Please see the log.cite file for references relevant to this simulation

Total wall time: 66:51:58
