Created by PDB2LAMMPS_new_bugfix2_CO2.py on 2020-12-14

        3054 atoms
        2012 bonds
        1006 angles
           0 dihedrals
           0 impropers

           6 atom types
           2 bond types
           2 angle types
           0 dihedral types
           0 improper types

-1.000000 43.172000 xlo xhi
-1.000000 43.172000 ylo yhi
-1.000000 43.172000 zlo zhi

Masses
 
1 22.989800 
2 35.453000 
3 15.999400 
4 1.007940 
5 12.010700 # C
6 15.999400 # O (CO2) 

 
# Pair Coeffs
# 
#1 0.459800 2.350000 
#2 0.450640 4.420000 
#3 0.650000 3.166000 
#4 0.000000 0.000000 
#5 0.233900 2.757000 
#6 0.669300 3.033000 
#
# 
# Bond Coeffs
# 
#1 527.200000 1.000000 
#2 0.000000 1.149000 
#
# 
# Angle Coeffs
# 
#1 37.950000 109.470000 
#2 0.000000 180.000000 
#
# 
# Dihedral Coeffs
# 
#
# 
# Improper Coeffs
 

 
 Atoms
 
1 1 1 1.0000000000   31.315    9.998    3.875 #Na1 NA_ 
2 2 1 1.0000000000   24.549   34.826    4.508 #Na1 NA_ 
3 3 1 1.0000000000   14.846   28.766   20.610 #Na1 NA_ 
4 4 1 1.0000000000   13.882   39.274   27.856 #Na1 NA_ 
5 5 1 1.0000000000   38.751    0.227   33.282 #Na1 NA_ 
6 6 1 1.0000000000   18.938   18.675   38.545 #Na1 NA_ 
7 7 1 1.0000000000   35.139   33.913   40.765 #Na1 NA_ 
8 8 1 1.0000000000    0.721   14.336   27.306 #Na1 NA_ 
9 9 1 1.0000000000    9.116   39.342    5.082 #Na1 NA_ 
10 10 1 1.0000000000   12.880   12.079   30.263 #Na1 NA_ 
11 11 1 1.0000000000   15.917   32.940   34.018 #Na1 NA_ 
12 12 1 1.0000000000   22.780    3.731    6.710 #Na1 NA_ 
13 13 1 1.0000000000    7.169   12.665   18.423 #Na1 NA_ 
14 14 1 1.0000000000   -0.056    5.733   35.428 #Na1 NA_ 
15 15 1 1.0000000000   30.662   15.536   36.202 #Na1 NA_ 
16 16 1 1.0000000000   31.297   26.105   29.279 #Na1 NA_ 
17 17 1 1.0000000000    9.152    2.205   31.771 #Na1 NA_ 
18 18 1 1.0000000000   30.501   13.673   11.339 #Na1 NA_ 
19 19 2 -1.0000000000    4.629   39.125   12.590 #Cl1 CL_ 
20 20 2 -1.0000000000    9.987   24.742   15.602 #Cl1 CL_ 
21 21 2 -1.0000000000   15.350    6.000   18.126 #Cl1 CL_ 
22 22 2 -1.0000000000   16.151    2.422   21.010 #Cl1 CL_ 
23 23 2 -1.0000000000   20.725   28.452    8.051 #Cl1 CL_ 
24 24 2 -1.0000000000   34.643   34.716   26.607 #Cl1 CL_ 
25 25 2 -1.0000000000   40.167   41.897   23.167 #Cl1 CL_ 
26 26 2 -1.0000000000    4.167    4.118    0.468 #Cl1 CL_ 
27 27 2 -1.0000000000   31.112   19.278   34.378 #Cl1 CL_ 
28 28 2 -1.0000000000   23.218    3.466   10.588 #Cl1 CL_ 
29 29 2 -1.0000000000   11.210    8.754    0.820 #Cl1 CL_ 
30 30 2 -1.0000000000   10.959   10.795   16.653 #Cl1 CL_ 
31 31 2 -1.0000000000   17.601    1.924   22.950 #Cl1 CL_ 
32 32 2 -1.0000000000    7.929    8.573   23.603 #Cl1 CL_ 
33 33 2 -1.0000000000    9.066   38.366   38.251 #Cl1 CL_ 
34 34 2 -1.0000000000    5.315    4.380   14.490 #Cl1 CL_ 
35 35 2 -1.0000000000    3.588   37.432   25.937 #Cl1 CL_ 
36 36 2 -1.0000000000   18.259   18.071   36.383 #Cl1 CL_ 
37 37 3 -0.8476000000   22.652    2.287   36.040 #O1 HOH 
38 37 4 0.4238000000   21.713    2.100   36.328 #H1 HOH 
39 37 4 0.4238000000   23.045    2.996   36.626 #H2 HOH 
40 38 3 -0.8476000000   12.924   36.923    8.748 #O1 HOH 
41 38 4 0.4238000000   13.110   36.829    9.727 #H1 HOH 
42 38 4 0.4238000000   13.256   37.812    8.431 #H2 HOH 
43 39 3 -0.8476000000   25.900   27.400   17.543 #O1 HOH 
44 39 4 0.4238000000   25.242   28.103   17.272 #H1 HOH 
45 39 4 0.4238000000   26.092   27.483   18.521 #H2 HOH 
46 40 3 -0.8476000000   31.477   12.079   18.215 #O1 HOH 
47 40 4 0.4238000000   31.723   12.101   17.246 #H1 HOH 
48 40 4 0.4238000000   31.683   11.174   18.589 #H2 HOH 
49 41 3 -0.8476000000   29.218   35.305    4.889 #O1 HOH 
50 41 4 0.4238000000   29.216   35.302    5.889 #H1 HOH 
51 41 4 0.4238000000   30.007   34.790    4.555 #H2 HOH 
52 42 3 -0.8476000000   32.392    6.861   10.129 #O1 HOH 
53 42 4 0.4238000000   31.541    6.707    9.626 #H1 HOH 
54 42 4 0.4238000000   33.067    6.174    9.860 #H2 HOH 
55 43 3 -0.8476000000   27.002    5.682   31.643 #O1 HOH 
56 43 4 0.4238000000   27.237    6.569   31.245 #H1 HOH 
57 43 4 0.4238000000   26.713    5.058   30.918 #H2 HOH 
58 44 3 -0.8476000000   11.184   41.832   32.434 #O1 HOH 
59 44 4 0.4238000000   10.959   41.005   31.919 #H1 HOH 
60 44 4 0.4238000000   11.570   41.578   33.321 #H2 HOH 
61 45 3 -0.8476000000   20.871   23.674   34.066 #O1 HOH 
62 45 4 0.4238000000   21.594   24.066   34.635 #H1 HOH 
63 45 4 0.4238000000   20.774   22.700   34.275 #H2 HOH 
64 46 3 -0.8476000000   21.329   37.262   32.674 #O1 HOH 
65 46 4 0.4238000000   21.259   37.591   33.616 #H1 HOH 
66 46 4 0.4238000000   21.710   36.337   32.672 #H2 HOH 
67 47 3 -0.8476000000   24.742   31.019    9.537 #O1 HOH 
68 47 4 0.4238000000   24.268   31.009   10.417 #H1 HOH 
69 47 4 0.4238000000   25.499   30.366    9.558 #H2 HOH 
70 48 3 -0.8476000000   38.648   37.035   20.215 #O1 HOH 
71 48 4 0.4238000000   39.136   36.706   19.407 #H1 HOH 
72 48 4 0.4238000000   39.251   36.986   21.011 #H2 HOH 
73 49 3 -0.8476000000   26.269    4.206    0.224 #O1 HOH 
74 49 4 0.4238000000   25.360    4.596    0.369 #H1 HOH 
75 49 4 0.4238000000   26.436    3.491    0.903 #H2 HOH 
76 50 3 -0.8476000000   27.267   19.588   15.564 #O1 HOH 
77 50 4 0.4238000000   26.764   20.147   14.905 #H1 HOH 
78 50 4 0.4238000000   28.249   19.733   15.442 #H2 HOH 
79 51 3 -0.8476000000   20.378    1.498    6.044 #O1 HOH 
80 51 4 0.4238000000   19.513    1.099    6.350 #H1 HOH 
81 51 4 0.4238000000   20.997    0.769    5.752 #H2 HOH 
82 52 3 -0.8476000000    8.320    2.557    9.058 #O1 HOH 
83 52 4 0.4238000000    8.565    2.740   10.010 #H1 HOH 
84 52 4 0.4238000000    7.816    3.338    8.688 #H2 HOH 
85 53 3 -0.8476000000   30.649    2.126   38.045 #O1 HOH 
86 53 4 0.4238000000   30.895    3.047   38.347 #H1 HOH 
87 53 4 0.4238000000   30.023    2.186   37.268 #H2 HOH 
88 54 3 -0.8476000000   13.444   24.136   23.744 #O1 HOH 
89 54 4 0.4238000000   13.504   24.104   22.746 #H1 HOH 
90 54 4 0.4238000000   14.345   24.343   24.125 #H2 HOH 
91 55 3 -0.8476000000   23.186   10.439   34.005 #O1 HOH 
92 55 4 0.4238000000   22.742   10.247   34.879 #H1 HOH 
93 55 4 0.4238000000   24.143   10.683   34.164 #H2 HOH 
94 56 3 -0.8476000000   14.563   35.569    5.529 #O1 HOH 
95 56 4 0.4238000000   15.091   34.745    5.733 #H1 HOH 
96 56 4 0.4238000000   14.919   36.334    6.066 #H2 HOH 
97 57 3 -0.8476000000    6.932   26.297   33.695 #O1 HOH 
98 57 4 0.4238000000    6.627   26.509   34.624 #H1 HOH 
99 57 4 0.4238000000    6.599   27.001   33.067 #H2 HOH 
100 58 3 -0.8476000000   36.416    2.506   28.962 #O1 HOH 
101 58 4 0.4238000000   36.745    1.578   28.789 #H1 HOH 
102 58 4 0.4238000000   36.459    2.697   29.943 #H2 HOH 
103 59 3 -0.8476000000   17.576   12.033   34.484 #O1 HOH 
104 59 4 0.4238000000   17.780   12.000   35.462 #H1 HOH 
105 59 4 0.4238000000   17.947   11.218   34.039 #H2 HOH 
106 60 3 -0.8476000000   26.656    4.945   15.765 #O1 HOH 
107 60 4 0.4238000000   26.659    4.921   14.765 #H1 HOH 
108 60 4 0.4238000000   25.805    4.544   16.105 #H2 HOH 
109 61 3 -0.8476000000   27.372   32.116   35.762 #O1 HOH 
110 61 4 0.4238000000   27.829   31.708   34.971 #H1 HOH 
111 61 4 0.4238000000   26.890   31.403   36.272 #H2 HOH 
112 62 3 -0.8476000000    7.938   19.635   15.928 #O1 HOH 
113 62 4 0.4238000000    8.867   19.343   16.154 #H1 HOH 
114 62 4 0.4238000000    7.436   18.868   15.529 #H2 HOH 
115 63 3 -0.8476000000    3.260    8.800   25.599 #O1 HOH 
116 63 4 0.4238000000    2.750    8.610   26.438 #H1 HOH 
117 63 4 0.4238000000    4.068    9.347   25.818 #H2 HOH 
118 64 3 -0.8476000000    6.937   31.886    6.950 #O1 HOH 
119 64 4 0.4238000000    7.061   32.093    5.980 #H1 HOH 
120 64 4 0.4238000000    7.425   31.043    7.176 #H2 HOH 
121 65 3 -0.8476000000   19.156   38.314   13.958 #O1 HOH 
122 65 4 0.4238000000   19.474   38.146   13.024 #H1 HOH 
123 65 4 0.4238000000   18.841   37.455   14.362 #H2 HOH 
124 66 3 -0.8476000000    8.997   20.958    9.752 #O1 HOH 
125 66 4 0.4238000000    8.998   20.959   10.752 #H1 HOH 
126 66 4 0.4238000000    8.363   20.260    9.420 #H2 HOH 
127 67 3 -0.8476000000   22.475    8.717   19.531 #O1 HOH 
128 67 4 0.4238000000   22.076    8.720   18.614 #H1 HOH 
129 67 4 0.4238000000   21.841    8.281   20.170 #H2 HOH 
130 68 3 -0.8476000000    0.879   11.679   38.640 #O1 HOH 
131 68 4 0.4238000000    1.076   12.548   38.187 #H1 HOH 
132 68 4 0.4238000000    1.733   11.263   38.951 #H2 HOH 
133 69 3 -0.8476000000   41.848   20.247   30.627 #O1 HOH 
134 69 4 0.4238000000   41.903   20.039   29.651 #H1 HOH 
135 69 4 0.4238000000   41.038   19.809   31.017 #H2 HOH 
136 70 3 -0.8476000000    0.395    2.196   22.320 #O1 HOH 
137 70 4 0.4238000000    0.006    2.255   23.239 #H1 HOH 
138 70 4 0.4238000000    0.065    2.962   21.769 #H2 HOH 
139 71 3 -0.8476000000   17.336   28.939   22.149 #O1 HOH 
140 71 4 0.4238000000   17.191   28.673   23.102 #H1 HOH 
141 71 4 0.4238000000   17.890   28.245   21.690 #H2 HOH 
142 72 3 -0.8476000000    7.660   25.085   17.501 #O1 HOH 
143 72 4 0.4238000000    8.121   25.840   17.966 #H1 HOH 
144 72 4 0.4238000000    7.594   25.286   16.523 #H2 HOH 
145 73 3 -0.8476000000   14.298    7.140   12.758 #O1 HOH 
146 73 4 0.4238000000   14.785    7.499   11.962 #H1 HOH 
147 73 4 0.4238000000   14.346    6.141   12.756 #H2 HOH 
148 74 3 -0.8476000000   27.684   25.089   13.466 #O1 HOH 
149 74 4 0.4238000000   27.636   25.109   14.464 #H1 HOH 
150 74 4 0.4238000000   27.524   24.156   13.143 #H2 HOH 
151 75 3 -0.8476000000    0.222   30.852   31.758 #O1 HOH 
152 75 4 0.4238000000    0.001   31.181   30.840 #H1 HOH 
153 75 4 0.4238000000    1.176   30.551   31.783 #H2 HOH 
154 76 3 -0.8476000000   16.926    6.868   14.494 #O1 HOH 
155 76 4 0.4238000000   17.284    7.072   13.582 #H1 HOH 
156 76 4 0.4238000000   17.155    5.926   14.738 #H2 HOH 
157 77 3 -0.8476000000   11.172   41.247    5.741 #O1 HOH 
158 77 4 0.4238000000   11.311   42.090    5.221 #H1 HOH 
159 77 4 0.4238000000   11.826   41.210    6.497 #H2 HOH 
160 78 3 -0.8476000000   -0.018   10.781   34.482 #O1 HOH 
161 78 4 0.4238000000    0.223   10.616   33.526 #H1 HOH 
162 78 4 0.4238000000    0.769   11.170   34.962 #H2 HOH 
163 79 3 -0.8476000000    7.385   41.886   34.413 #O1 HOH 
164 79 4 0.4238000000    7.355   42.117   33.440 #H1 HOH 
165 79 4 0.4238000000    6.494   42.075   34.827 #H2 HOH 
166 80 3 -0.8476000000    0.727   24.130   21.646 #O1 HOH 
167 80 4 0.4238000000   -0.000   24.437   22.259 #H1 HOH 
168 80 4 0.4238000000    1.616   24.338   22.053 #H2 HOH 
169 81 3 -0.8476000000   30.638   12.881    3.715 #O1 HOH 
170 81 4 0.4238000000   31.007   12.161    4.303 #H1 HOH 
171 81 4 0.4238000000   30.773   12.630    2.757 #H2 HOH 
172 82 3 -0.8476000000   35.564   24.121   17.424 #O1 HOH 
173 82 4 0.4238000000   35.377   23.324   17.998 #H1 HOH 
174 82 4 0.4238000000   35.689   24.926   18.003 #H2 HOH 
175 83 3 -0.8476000000   11.594    4.440   11.133 #O1 HOH 
176 83 4 0.4238000000   12.472    4.046   11.406 #H1 HOH 
177 83 4 0.4238000000   11.422    5.270   11.664 #H2 HOH 
178 84 3 -0.8476000000   18.878   34.658   14.422 #O1 HOH 
179 84 4 0.4238000000   18.347   34.315   15.197 #H1 HOH 
180 84 4 0.4238000000   18.267   35.117   13.777 #H2 HOH 
181 85 3 -0.8476000000    0.035   23.671   30.066 #O1 HOH 
182 85 4 0.4238000000    0.115   23.511   31.050 #H1 HOH 
183 85 4 0.4238000000    0.309   24.610   29.857 #H2 HOH 
184 86 3 -0.8476000000   17.437   33.460   31.093 #O1 HOH 
185 86 4 0.4238000000   17.240   33.453   30.113 #H1 HOH 
186 86 4 0.4238000000   17.455   34.404   31.422 #H2 HOH 
187 87 3 -0.8476000000    8.851   33.770    0.293 #O1 HOH 
188 87 4 0.4238000000    8.560   34.459    0.957 #H1 HOH 
189 87 4 0.4238000000    9.704   33.349    0.603 #H2 HOH 
190 88 3 -0.8476000000    2.495   40.401   33.681 #O1 HOH 
191 88 4 0.4238000000    2.494   40.400   34.681 #H1 HOH 
192 88 4 0.4238000000    1.948   41.168   33.348 #H2 HOH 
193 89 3 -0.8476000000   16.782   13.443   32.803 #O1 HOH 
194 89 4 0.4238000000   16.124   13.251   32.074 #H1 HOH 
195 89 4 0.4238000000   16.290   13.671   33.643 #H2 HOH 
196 90 3 -0.8476000000   22.279   36.750    8.841 #O1 HOH 
197 90 4 0.4238000000   22.170   37.744    8.833 #H1 HOH 
198 90 4 0.4238000000   23.252   36.521    8.814 #H2 HOH 
199 91 3 -0.8476000000   16.446   18.708    8.904 #O1 HOH 
200 91 4 0.4238000000   16.035   18.862    8.005 #H1 HOH 
201 91 4 0.4238000000   15.836   19.062    9.613 #H2 HOH 
202 92 3 -0.8476000000   41.804   38.846   26.857 #O1 HOH 
203 92 4 0.4238000000   41.825   38.844   27.856 #H1 HOH 
204 92 4 0.4238000000   40.943   38.447   26.541 #H2 HOH 
205 93 3 -0.8476000000   27.269   33.512   26.194 #O1 HOH 
206 93 4 0.4238000000   27.169   32.954   27.018 #H1 HOH 
207 93 4 0.4238000000   26.499   34.146   26.126 #H2 HOH 
208 94 3 -0.8476000000    1.517   36.698   38.181 #O1 HOH 
209 94 4 0.4238000000    2.506   36.841   38.213 #H1 HOH 
210 94 4 0.4238000000    1.249   36.056   38.899 #H2 HOH 
211 95 3 -0.8476000000    9.297    3.143   29.331 #O1 HOH 
212 95 4 0.4238000000   10.003    3.608   28.796 #H1 HOH 
213 95 4 0.4238000000    8.414    3.584   29.172 #H2 HOH 
214 96 3 -0.8476000000    5.044    4.809    4.206 #O1 HOH 
215 96 4 0.4238000000    4.263    4.392    3.742 #H1 HOH 
216 96 4 0.4238000000    5.845    4.773    3.609 #H2 HOH 
217 97 3 -0.8476000000   17.786   15.910   37.451 #O1 HOH 
218 97 4 0.4238000000   17.844   16.148   38.421 #H1 HOH 
219 97 4 0.4238000000   18.028   14.948   37.329 #H2 HOH 
220 98 3 -0.8476000000    3.798   40.523   17.035 #O1 HOH 
221 98 4 0.4238000000    3.813   40.392   18.026 #H1 HOH 
222 98 4 0.4238000000    3.433   41.430   16.824 #H2 HOH 
223 99 3 -0.8476000000   14.170   40.683   32.149 #O1 HOH 
224 99 4 0.4238000000   13.642   40.854   32.981 #H1 HOH 
225 99 4 0.4238000000   14.762   41.468   31.964 #H2 HOH 
226 100 3 -0.8476000000   30.586    7.469   13.566 #O1 HOH 
227 100 4 0.4238000000   31.045    6.652   13.218 #H1 HOH 
228 100 4 0.4238000000   30.728    7.536   14.553 #H2 HOH 
229 101 3 -0.8476000000   36.044   34.692    0.906 #O1 HOH 
230 101 4 0.4238000000   35.359   34.426    0.228 #H1 HOH 
231 101 4 0.4238000000   36.049   34.028    1.654 #H2 HOH 
232 102 3 -0.8476000000   22.509    1.275   40.350 #O1 HOH 
233 102 4 0.4238000000   22.545    2.073   39.749 #H1 HOH 
234 102 4 0.4238000000   21.598    0.865   40.305 #H2 HOH 
235 103 3 -0.8476000000   27.838   10.585    6.007 #O1 HOH 
236 103 4 0.4238000000   27.307   10.939    6.777 #H1 HOH 
237 103 4 0.4238000000   27.302   10.668    5.167 #H2 HOH 
238 104 3 -0.8476000000    4.937   38.015   39.842 #O1 HOH 
239 104 4 0.4238000000    5.603   38.478   39.257 #H1 HOH 
240 104 4 0.4238000000    5.399   37.659   40.655 #H2 HOH 
241 105 3 -0.8476000000    9.217    0.493    6.277 #O1 HOH 
242 105 4 0.4238000000    9.102    0.002    5.413 #H1 HOH 
243 105 4 0.4238000000   10.029    1.075    6.223 #H2 HOH 
244 106 3 -0.8476000000   32.329   25.767    1.011 #O1 HOH 
245 106 4 0.4238000000   32.204   25.135    1.775 #H1 HOH 
246 106 4 0.4238000000   32.698   26.632    1.351 #H2 HOH 
247 107 3 -0.8476000000   24.854   34.760   27.465 #O1 HOH 
248 107 4 0.4238000000   23.931   34.781   27.847 #H1 HOH 
249 107 4 0.4238000000   25.457   35.335   28.019 #H2 HOH 
250 108 3 -0.8476000000   39.896   28.385    8.668 #O1 HOH 
251 108 4 0.4238000000   39.751   28.694    7.728 #H1 HOH 
252 108 4 0.4238000000   40.856   28.132    8.790 #H2 HOH 
253 109 3 -0.8476000000    5.790   37.065   31.082 #O1 HOH 
254 109 4 0.4238000000    6.174   37.246   30.176 #H1 HOH 
255 109 4 0.4238000000    5.644   36.082   31.191 #H2 HOH 
256 110 3 -0.8476000000   11.629    7.396   24.138 #O1 HOH 
257 110 4 0.4238000000   11.957    7.207   25.063 #H1 HOH 
258 110 4 0.4238000000   10.959    8.139   24.168 #H2 HOH 
259 111 3 -0.8476000000   33.253   12.349   36.109 #O1 HOH 
260 111 4 0.4238000000   32.785   12.032   35.285 #H1 HOH 
261 111 4 0.4238000000   34.191   12.002   36.115 #H2 HOH 
262 112 3 -0.8476000000   15.473   22.176    8.912 #O1 HOH 
263 112 4 0.4238000000   15.979   22.445    8.092 #H1 HOH 
264 112 4 0.4238000000   15.677   21.221    9.131 #H2 HOH 
265 113 3 -0.8476000000   13.884   11.053   25.396 #O1 HOH 
266 113 4 0.4238000000   13.790   11.052   24.401 #H1 HOH 
267 113 4 0.4238000000   13.756   11.983   25.742 #H2 HOH 
268 114 3 -0.8476000000    5.419    4.180   30.138 #O1 HOH 
269 114 4 0.4238000000    5.941    3.446   30.571 #H1 HOH 
270 114 4 0.4238000000    4.721    4.513   30.772 #H2 HOH 
271 115 3 -0.8476000000    9.348   33.294   39.414 #O1 HOH 
272 115 4 0.4238000000    9.002   33.875   38.677 #H1 HOH 
273 115 4 0.4238000000    9.293   32.335   39.136 #H2 HOH 
274 116 3 -0.8476000000   28.012   27.218    3.426 #O1 HOH 
275 116 4 0.4238000000   27.926   27.416    4.403 #H1 HOH 
276 116 4 0.4238000000   27.408   26.459    3.185 #H2 HOH 
277 117 3 -0.8476000000   19.212    7.405    8.499 #O1 HOH 
278 117 4 0.4238000000   19.088    8.397    8.462 #H1 HOH 
279 117 4 0.4238000000   18.900    7.063    9.386 #H2 HOH 
280 118 3 -0.8476000000   34.923   25.124    3.259 #O1 HOH 
281 118 4 0.4238000000   34.891   24.306    2.684 #H1 HOH 
282 118 4 0.4238000000   34.177   25.092    3.925 #H2 HOH 
283 119 3 -0.8476000000   39.221    9.520    7.423 #O1 HOH 
284 119 4 0.4238000000   39.304    9.646    8.411 #H1 HOH 
285 119 4 0.4238000000   38.308    9.174    7.207 #H2 HOH 
286 120 3 -0.8476000000   25.566   29.872   26.126 #O1 HOH 
287 120 4 0.4238000000   25.380   30.186   27.057 #H1 HOH 
288 120 4 0.4238000000   25.402   30.620   25.483 #H2 HOH 
289 121 3 -0.8476000000   27.175   24.555   31.704 #O1 HOH 
290 121 4 0.4238000000   27.022   24.573   32.692 #H1 HOH 
291 121 4 0.4238000000   28.156   24.620   31.518 #H2 HOH 
292 122 3 -0.8476000000   30.754   12.017   13.666 #O1 HOH 
293 122 4 0.4238000000   29.966   11.405   13.599 #H1 HOH 
294 122 4 0.4238000000   31.183   12.106   12.767 #H2 HOH 
295 123 3 -0.8476000000    7.523   34.997   10.947 #O1 HOH 
296 123 4 0.4238000000    6.894   34.316   10.573 #H1 HOH 
297 123 4 0.4238000000    7.191   35.300   11.841 #H2 HOH 
298 124 3 -0.8476000000    8.504   14.311   18.871 #O1 HOH 
299 124 4 0.4238000000    7.973   15.129   18.647 #H1 HOH 
300 124 4 0.4238000000    8.792   14.354   19.828 #H2 HOH 
301 125 3 -0.8476000000   41.563    1.045    1.183 #O1 HOH 
302 125 4 0.4238000000   41.593    1.055    0.184 #H1 HOH 
303 125 4 0.4238000000   42.063    0.249    1.524 #H2 HOH 
304 126 3 -0.8476000000   20.659    0.540   26.995 #O1 HOH 
305 126 4 0.4238000000   20.065    0.903   26.278 #H1 HOH 
306 126 4 0.4238000000   20.151    0.490   27.855 #H2 HOH 
307 127 3 -0.8476000000   13.154   23.887    6.843 #O1 HOH 
308 127 4 0.4238000000   13.153   24.821    6.485 #H1 HOH 
309 127 4 0.4238000000   14.094   23.606    7.036 #H2 HOH 
310 128 3 -0.8476000000    0.905   31.109    4.284 #O1 HOH 
311 128 4 0.4238000000    0.774   30.964    5.265 #H1 HOH 
312 128 4 0.4238000000    1.865   31.322    4.105 #H2 HOH 
313 129 3 -0.8476000000   28.892   13.727   28.988 #O1 HOH 
314 129 4 0.4238000000   28.725   13.151   28.187 #H1 HOH 
315 129 4 0.4238000000   29.039   14.671   28.694 #H2 HOH 
316 130 3 -0.8476000000   31.585   26.605    9.212 #O1 HOH 
317 130 4 0.4238000000   31.580   26.790   10.194 #H1 HOH 
318 130 4 0.4238000000   31.439   25.628    9.056 #H2 HOH 
319 131 3 -0.8476000000   25.543    5.423   38.070 #O1 HOH 
320 131 4 0.4238000000   25.821    5.372   39.029 #H1 HOH 
321 131 4 0.4238000000   26.052    4.747   37.538 #H2 HOH 
322 132 3 -0.8476000000    8.250   40.965   18.370 #O1 HOH 
323 132 4 0.4238000000    7.973   41.446   17.539 #H1 HOH 
324 132 4 0.4238000000    7.897   41.451   19.170 #H2 HOH 
325 133 3 -0.8476000000   34.695   -0.009    5.314 #O1 HOH 
326 133 4 0.4238000000   34.714    0.413    4.407 #H1 HOH 
327 133 4 0.4238000000   34.258    0.615    5.962 #H2 HOH 
328 134 3 -0.8476000000   28.154   40.948   25.189 #O1 HOH 
329 134 4 0.4238000000   28.976   40.700   25.702 #H1 HOH 
330 134 4 0.4238000000   27.585   41.555   25.744 #H2 HOH 
331 135 3 -0.8476000000   18.566   37.476    1.835 #O1 HOH 
332 135 4 0.4238000000   18.080   38.323    1.618 #H1 HOH 
333 135 4 0.4238000000   18.615   36.901    1.019 #H2 HOH 
334 136 3 -0.8476000000    2.195    4.615   18.594 #O1 HOH 
335 136 4 0.4238000000    2.375    4.736   17.618 #H1 HOH 
336 136 4 0.4238000000    1.227    4.407   18.731 #H2 HOH 
337 137 3 -0.8476000000   18.251    9.857    3.335 #O1 HOH 
338 137 4 0.4238000000   19.224    9.705    3.509 #H1 HOH 
339 137 4 0.4238000000   17.955   10.690    3.803 #H2 HOH 
340 138 3 -0.8476000000    0.569   20.605    0.821 #O1 HOH 
341 138 4 0.4238000000    0.318   21.256    1.536 #H1 HOH 
342 138 4 0.4238000000    0.001   19.786    0.902 #H2 HOH 
343 139 3 -0.8476000000   25.382   36.565   36.475 #O1 HOH 
344 139 4 0.4238000000   25.284   37.071   37.332 #H1 HOH 
345 139 4 0.4238000000   25.457   35.588   36.672 #H2 HOH 
346 140 3 -0.8476000000   22.347   29.270    5.502 #O1 HOH 
347 140 4 0.4238000000   22.205   29.270    4.512 #H1 HOH 
348 140 4 0.4238000000   22.172   30.186    5.863 #H2 HOH 
349 141 3 -0.8476000000   15.368   34.457    2.164 #O1 HOH 
350 141 4 0.4238000000   16.121   33.871    2.463 #H1 HOH 
351 141 4 0.4238000000   15.136   34.242    1.216 #H2 HOH 
352 142 3 -0.8476000000    5.016    4.509   18.612 #O1 HOH 
353 142 4 0.4238000000    5.085    4.548   17.616 #H1 HOH 
354 142 4 0.4238000000    5.092    3.559   18.915 #H2 HOH 
355 143 3 -0.8476000000   31.185   11.458   10.178 #O1 HOH 
356 143 4 0.4238000000   30.320   11.081   10.508 #H1 HOH 
357 143 4 0.4238000000   31.429   11.024    9.310 #H2 HOH 
358 144 3 -0.8476000000   10.428   36.629   37.224 #O1 HOH 
359 144 4 0.4238000000   10.809   36.962   38.087 #H1 HOH 
360 144 4 0.4238000000   10.527   37.335   36.523 #H2 HOH 
361 145 3 -0.8476000000    0.422   14.755   40.608 #O1 HOH 
362 145 4 0.4238000000    1.213   15.318   40.845 #H1 HOH 
363 145 4 0.4238000000    0.536   14.393   39.683 #H2 HOH 
364 146 3 -0.8476000000   27.810    3.670   33.277 #O1 HOH 
365 146 4 0.4238000000   27.795    3.679   32.277 #H1 HOH 
366 146 4 0.4238000000   28.757    3.645   33.596 #H2 HOH 
367 147 3 -0.8476000000   23.653   37.339    0.730 #O1 HOH 
368 147 4 0.4238000000   23.503   37.223    1.712 #H1 HOH 
369 147 4 0.4238000000   24.478   36.843    0.459 #H2 HOH 
370 148 3 -0.8476000000    0.245   41.630   19.559 #O1 HOH 
371 148 4 0.4238000000    0.710   41.167   18.804 #H1 HOH 
372 148 4 0.4238000000    0.907   42.172   20.076 #H2 HOH 
373 149 3 -0.8476000000   34.374   23.867   29.920 #O1 HOH 
374 149 4 0.4238000000   33.856   24.722   29.928 #H1 HOH 
375 149 4 0.4238000000   33.756   23.102   30.105 #H2 HOH 
376 150 3 -0.8476000000   11.576   28.408   12.979 #O1 HOH 
377 150 4 0.4238000000   11.710   28.317   13.965 #H1 HOH 
378 150 4 0.4238000000   12.359   28.014   12.498 #H2 HOH 
379 151 3 -0.8476000000   22.764   41.657    0.566 #O1 HOH 
380 151 4 0.4238000000   22.387   41.338    1.436 #H1 HOH 
381 151 4 0.4238000000   23.607   42.167    0.736 #H2 HOH 
382 152 3 -0.8476000000    0.602   16.041    0.886 #O1 HOH 
383 152 4 0.4238000000    0.014   15.251    0.708 #H1 HOH 
384 152 4 0.4238000000    0.049   16.874    0.882 #H2 HOH 
385 153 3 -0.8476000000   37.866   20.403   11.938 #O1 HOH 
386 153 4 0.4238000000   38.472   21.020   12.439 #H1 HOH 
387 153 4 0.4238000000   37.937   20.589   10.958 #H2 HOH 
388 154 3 -0.8476000000   27.763    7.148    3.540 #O1 HOH 
389 154 4 0.4238000000   27.647    7.957    2.965 #H1 HOH 
390 154 4 0.4238000000   28.736    7.000    3.715 #H2 HOH 
391 155 3 -0.8476000000   32.184    4.562   16.765 #O1 HOH 
392 155 4 0.4238000000   31.912    5.353   17.312 #H1 HOH 
393 155 4 0.4238000000   32.037    3.725   17.294 #H2 HOH 
394 156 3 -0.8476000000   23.517   37.748   24.221 #O1 HOH 
395 156 4 0.4238000000   22.595   37.596   23.863 #H1 HOH 
396 156 4 0.4238000000   23.845   36.913   24.662 #H2 HOH 
397 157 3 -0.8476000000   16.400   24.786    2.483 #O1 HOH 
398 157 4 0.4238000000   15.633   24.719    3.121 #H1 HOH 
399 157 4 0.4238000000   16.106   24.484    1.576 #H2 HOH 
400 158 3 -0.8476000000   27.243    8.451   39.931 #O1 HOH 
401 158 4 0.4238000000   26.463    8.672   40.517 #H1 HOH 
402 158 4 0.4238000000   28.055    8.312   40.498 #H2 HOH 
403 159 3 -0.8476000000   11.753   38.432   40.135 #O1 HOH 
404 159 4 0.4238000000   11.849   38.614   39.157 #H1 HOH 
405 159 4 0.4238000000   10.785   38.311   40.357 #H2 HOH 
406 160 3 -0.8476000000    0.917   18.327   25.234 #O1 HOH 
407 160 4 0.4238000000    0.883   18.282   24.235 #H1 HOH 
408 160 4 0.4238000000   -0.001   18.502   25.591 #H2 HOH 
409 161 3 -0.8476000000    1.891   11.685   24.228 #O1 HOH 
410 161 4 0.4238000000    1.602   11.413   25.146 #H1 HOH 
411 161 4 0.4238000000    1.142   12.166   23.773 #H2 HOH 
412 162 3 -0.8476000000   34.165    5.578   31.032 #O1 HOH 
413 162 4 0.4238000000   34.319    5.565   32.020 #H1 HOH 
414 162 4 0.4238000000   33.888    6.496   30.750 #H2 HOH 
415 163 3 -0.8476000000   21.638    8.377    8.066 #O1 HOH 
416 163 4 0.4238000000   21.584    9.004    8.843 #H1 HOH 
417 163 4 0.4238000000   21.895    7.466    8.389 #H2 HOH 
418 164 3 -0.8476000000   27.252   36.893   14.022 #O1 HOH 
419 164 4 0.4238000000   27.373   35.907   13.910 #H1 HOH 
420 164 4 0.4238000000   27.573   37.364   13.200 #H2 HOH 
421 165 3 -0.8476000000   33.670   18.377   35.878 #O1 HOH 
422 165 4 0.4238000000   33.945   18.523   36.828 #H1 HOH 
423 165 4 0.4238000000   32.840   18.902   35.687 #H2 HOH 
424 166 3 -0.8476000000   27.698    9.494   30.793 #O1 HOH 
425 166 4 0.4238000000   27.174    8.667   30.588 #H1 HOH 
426 166 4 0.4238000000   28.668    9.326   30.621 #H2 HOH 
427 167 3 -0.8476000000   28.202   17.466   18.015 #O1 HOH 
428 167 4 0.4238000000   27.869   18.270   17.522 #H1 HOH 
429 167 4 0.4238000000   29.158   17.300   17.775 #H2 HOH 
430 168 3 -0.8476000000   22.731   32.984    5.995 #O1 HOH 
431 168 4 0.4238000000   21.876   32.719    6.440 #H1 HOH 
432 168 4 0.4238000000   23.450   32.335    6.243 #H2 HOH 
433 169 3 -0.8476000000   16.687   21.287   22.881 #O1 HOH 
434 169 4 0.4238000000   16.671   20.370   23.280 #H1 HOH 
435 169 4 0.4238000000   15.793   21.718   23.000 #H2 HOH 
436 170 3 -0.8476000000    6.655    5.571   40.643 #O1 HOH 
437 170 4 0.4238000000    7.180    5.378   39.813 #H1 HOH 
438 170 4 0.4238000000    6.617    4.750   41.212 #H2 HOH 
439 171 3 -0.8476000000    1.884   19.667   21.434 #O1 HOH 
440 171 4 0.4238000000    2.466   19.846   20.641 #H1 HOH 
441 171 4 0.4238000000    2.167   20.253   22.194 #H2 HOH 
442 172 3 -0.8476000000   21.377    7.454   11.437 #O1 HOH 
443 172 4 0.4238000000   21.990    7.511   10.648 #H1 HOH 
444 172 4 0.4238000000   20.785    8.259   11.458 #H2 HOH 
445 173 3 -0.8476000000   12.098   27.828    1.648 #O1 HOH 
446 173 4 0.4238000000   12.266   26.859    1.467 #H1 HOH 
447 173 4 0.4238000000   12.147   27.996    2.633 #H2 HOH 
448 174 3 -0.8476000000   11.681   35.802   16.950 #O1 HOH 
449 174 4 0.4238000000   11.498   35.449   16.032 #H1 HOH 
450 174 4 0.4238000000   10.821   36.086   17.374 #H2 HOH 
451 175 3 -0.8476000000   21.380   19.048   33.966 #O1 HOH 
452 175 4 0.4238000000   21.003   18.557   33.181 #H1 HOH 
453 175 4 0.4238000000   21.353   20.032   33.788 #H2 HOH 
454 176 3 -0.8476000000   41.982   40.264   21.979 #O1 HOH 
455 176 4 0.4238000000   41.129   40.543   21.539 #H1 HOH 
456 176 4 0.4238000000   42.101   40.775   22.831 #H2 HOH 
457 177 3 -0.8476000000   32.629   19.800    0.876 #O1 HOH 
458 177 4 0.4238000000   32.624   19.801    1.876 #H1 HOH 
459 177 4 0.4238000000   33.215   19.060    0.546 #H2 HOH 
460 178 3 -0.8476000000   27.053    9.044   24.680 #O1 HOH 
461 178 4 0.4238000000   27.417    8.833   25.588 #H1 HOH 
462 178 4 0.4238000000   26.188    8.559   24.548 #H2 HOH 
463 179 3 -0.8476000000   23.154   27.302   13.990 #O1 HOH 
464 179 4 0.4238000000   22.378   26.994   14.540 #H1 HOH 
465 179 4 0.4238000000   23.991   27.250   14.535 #H2 HOH 
466 180 3 -0.8476000000    1.779   29.940   14.834 #O1 HOH 
467 180 4 0.4238000000    1.302   30.816   14.911 #H1 HOH 
468 180 4 0.4238000000    1.169   29.263   14.425 #H2 HOH 
469 181 3 -0.8476000000   40.688    8.400   18.848 #O1 HOH 
470 181 4 0.4238000000   40.236    7.569   18.523 #H1 HOH 
471 181 4 0.4238000000   41.027    8.922   18.065 #H2 HOH 
472 182 3 -0.8476000000   40.396   32.581   15.413 #O1 HOH 
473 182 4 0.4238000000   40.464   31.803   14.788 #H1 HOH 
474 182 4 0.4238000000   40.558   33.429   14.908 #H2 HOH 
475 183 3 -0.8476000000   33.729   13.369   11.456 #O1 HOH 
476 183 4 0.4238000000   34.477   13.769   10.926 #H1 HOH 
477 183 4 0.4238000000   33.363   14.055   12.085 #H2 HOH 
478 184 3 -0.8476000000   18.177    2.782   39.366 #O1 HOH 
479 184 4 0.4238000000   18.071    2.766   38.372 #H1 HOH 
480 184 4 0.4238000000   17.984    1.873   39.736 #H2 HOH 
481 185 3 -0.8476000000   27.320   19.528   32.057 #O1 HOH 
482 185 4 0.4238000000   27.097   18.556   31.985 #H1 HOH 
483 185 4 0.4238000000   26.600   19.998   32.568 #H2 HOH 
484 186 3 -0.8476000000   23.504   26.974   36.194 #O1 HOH 
485 186 4 0.4238000000   23.409   26.849   35.206 #H1 HOH 
486 186 4 0.4238000000   23.114   26.184   36.668 #H2 HOH 
487 187 3 -0.8476000000   35.351   16.138   33.951 #O1 HOH 
488 187 4 0.4238000000   35.359   16.166   34.950 #H1 HOH 
489 187 4 0.4238000000   34.971   16.992   33.596 #H2 HOH 
490 188 3 -0.8476000000    7.099   31.784   37.896 #O1 HOH 
491 188 4 0.4238000000    6.792   31.341   38.739 #H1 HOH 
492 188 4 0.4238000000    6.482   31.541   37.148 #H2 HOH 
493 189 3 -0.8476000000   27.539   22.520   29.685 #O1 HOH 
494 189 4 0.4238000000   28.343   23.091   29.853 #H1 HOH 
495 189 4 0.4238000000   27.198   22.687   28.760 #H2 HOH 
496 190 3 -0.8476000000    0.762   24.196    0.977 #O1 HOH 