LAMMPS (16 Feb 2016)
Reading data file ...
  orthogonal box = (3.03355 2.97955 3.02605) to (31.9915 31.9375 31.984)
  2 by 2 by 3 MPI processor grid
  reading atoms ...
  2400 atoms
  reading velocities ...
  2400 velocities
  scanning bonds ...
  2 = max bonds/atom
  scanning angles ...
  1 = max angles/atom
  reading bonds ...
  1600 bonds
  reading angles ...
  800 angles
Finding 1-2 1-3 1-4 neighbors ...
 Special bond factors lj:   0          0          0         
 Special bond factors coul: 0          0          0         
  2 = max # of 1-2 neighbors
  1 = max # of 1-3 neighbors
  1 = max # of 1-4 neighbors
  2 = max # of special neighbors
Setting atom values ...
  1600 settings made for charge
Setting atom values ...
  800 settings made for charge
800 atoms in group O_Water
1600 atoms in group H_Water
Finding SHAKE clusters ...
  0 = # of size 2 clusters
  0 = # of size 3 clusters
  0 = # of size 4 clusters
  800 = # of frozen angles
PPPM initialization ...
  G vector (1/distance) = 0.336942
  grid = 40 40 40
  stencil order = 5
  estimated absolute RMS force accuracy = 0.000391029
  estimated relative force accuracy = 1.17757e-06
  using double precision FFTs
  3d grid and FFT values/proc = 15309 6400
Neighbor list info ...
  1 neighbor list requests
  update every 1 steps, delay 0 steps, check yes
  max neighbors/atom: 2000, page size: 100000
  master list distance cutoff = 12
  ghost atom cutoff = 12
  binsize = 6, bins = 5 5 5
Setting up Verlet run ...
  Unit style  : real
  Current step: 0
  Time step   : 0.0001
Memory usage per processor = 8.02302 Mbytes
Step Temp E_pair E_mol TotEng Press 
       0       303.15   -8871.4729            0   -7426.5645     22283926 
   10000    203.82384   -8875.5227            0    -7904.034   -1426.5169 
Loop time of 53.7173 on 12 procs for 10000 steps with 2400 atoms

Performance: 0.002 ns/day, 14921.482 hours/ns, 186.160 timesteps/s
100.0% CPU use with 12 MPI tasks x no OpenMP threads

MPI task timing breakdown:
Section |  min time  |  avg time  |  max time  |%varavg| %total
---------------------------------------------------------------
Pair    | 17.747     | 20.524     | 22.565     |  34.1 | 38.21
Bond    | 0.0033367  | 0.0042673  | 0.0060639  |   1.2 |  0.01
Kspace  | 27.198     | 29.153     | 31.811     |  27.5 | 54.27
Neigh   | 0          | 0          | 0          |   0.0 |  0.00
Comm    | 2.1493     | 2.2197     | 2.3223     |   3.4 |  4.13
Output  | 4.1008e-05 | 4.373e-05  | 7.0095e-05 |   0.1 |  0.00
Modify  | 1.6478     | 1.6818     | 1.7372     |   2.4 |  3.13
Other   |            | 0.1342     |            |       |  0.25

Nlocal:    200 ave 218 max 186 min
Histogram: 2 1 2 2 1 0 0 1 1 2
Nghost:    4738.17 ave 4779 max 4680 min
Histogram: 2 0 0 1 0 1 4 1 0 3
Neighs:    71490.2 ave 79894 max 61594 min
Histogram: 1 1 1 2 0 2 1 1 1 2

Total # of neighbors = 857883
Ave neighs/atom = 357.451
Ave special neighs/atom = 2
Neighbor list builds = 0
Dangerous builds = 0
PPPM initialization ...
  G vector (1/distance) = 0.336942
  grid = 40 40 40
  stencil order = 5
  estimated absolute RMS force accuracy = 0.000391029
  estimated relative force accuracy = 1.17757e-06
  using double precision FFTs
  3d grid and FFT values/proc = 15309 6400
Setting up Verlet run ...
  Unit style  : real
  Current step: 10000
  Time step   : 0.0002
Memory usage per processor = 8.02302 Mbytes
Step Temp E_pair E_mol TotEng Press 
   10000    203.82384   -8875.5227            0    -7904.034   -1426.5123 
   20000    213.56074   -8898.0612            0   -7880.1635   -1465.3048 
Loop time of 54.0805 on 12 procs for 10000 steps with 2400 atoms

Performance: 0.003 ns/day, 7511.187 hours/ns, 184.909 timesteps/s
100.0% CPU use with 12 MPI tasks x no OpenMP threads

MPI task timing breakdown:
Section |  min time  |  avg time  |  max time  |%varavg| %total
---------------------------------------------------------------
Pair    | 17.77      | 20.489     | 22.554     |  34.0 | 37.89
Bond    | 0.0032222  | 0.0040314  | 0.0055733  |   1.1 |  0.01
Kspace  | 27.552     | 29.55      | 32.191     |  27.4 | 54.64
Neigh   | 0          | 0          | 0          |   0.0 |  0.00
Comm    | 2.1378     | 2.2231     | 2.344      |   3.4 |  4.11
Output  | 4.0054e-05 | 4.3193e-05 | 6.8188e-05 |   0.1 |  0.00
Modify  | 1.6512     | 1.6823     | 1.7355     |   2.4 |  3.11
Other   |            | 0.1319     |            |       |  0.24

Nlocal:    200 ave 218 max 185 min
Histogram: 2 1 1 3 1 0 0 1 1 2
Nghost:    4734.58 ave 4776 max 4676 min
Histogram: 2 0 0 1 0 0 4 2 2 1
Neighs:    71487.2 ave 80304 max 61632 min
Histogram: 1 1 1 2 1 1 1 1 1 2

Total # of neighbors = 857847
Ave neighs/atom = 357.436
Ave special neighs/atom = 2
Neighbor list builds = 0
Dangerous builds = 0
PPPM initialization ...
  G vector (1/distance) = 0.336942
  grid = 40 40 40
  stencil order = 5
  estimated absolute RMS force accuracy = 0.000391029
  estimated relative force accuracy = 1.17757e-06
  using double precision FFTs
  3d grid and FFT values/proc = 15309 6400
Setting up Verlet run ...
  Unit style  : real
  Current step: 20000
  Time step   : 0.0005
Memory usage per processor = 8.02302 Mbytes
Step Temp E_pair E_mol TotEng Press 
   20000    213.56074   -8898.0612            0   -7880.1635   -1465.2987 
   30000    247.13196   -8988.1898            0    -7810.281   -1746.8993 
Loop time of 53.7531 on 12 procs for 10000 steps with 2400 atoms

Performance: 0.008 ns/day, 2986.281 hours/ns, 186.036 timesteps/s
100.0% CPU use with 12 MPI tasks x no OpenMP threads

MPI task timing breakdown:
Section |  min time  |  avg time  |  max time  |%varavg| %total
---------------------------------------------------------------
Pair    | 17.828     | 20.5       | 22.397     |  32.5 | 38.14
Bond    | 0.0032446  | 0.0041138  | 0.0053439  |   1.0 |  0.01
Kspace  | 27.345     | 29.203     | 31.771     |  26.3 | 54.33
Neigh   | 0          | 0          | 0          |   0.0 |  0.00
Comm    | 2.1463     | 2.2272     | 2.3111     |   3.2 |  4.14
Output  | 4.1008e-05 | 4.3432e-05 | 7.0095e-05 |   0.1 |  0.00
Modify  | 1.6546     | 1.6869     | 1.7401     |   2.4 |  3.14
Other   |            | 0.1321     |            |       |  0.25

Nlocal:    200 ave 217 max 186 min
Histogram: 2 1 2 2 1 0 0 1 1 2
Nghost:    4736.42 ave 4781 max 4674 min
Histogram: 2 0 0 1 0 2 2 2 2 1
Neighs:    71486.6 ave 79747 max 61835 min
Histogram: 1 0 2 1 1 2 1 1 1 2

Total # of neighbors = 857839
Ave neighs/atom = 357.433
Ave special neighs/atom = 2
Neighbor list builds = 0
Dangerous builds = 0
PPPM initialization ...
  G vector (1/distance) = 0.336942
  grid = 40 40 40
  stencil order = 5
  estimated absolute RMS force accuracy = 0.000391029
  estimated relative force accuracy = 1.17757e-06
  using double precision FFTs
  3d grid and FFT values/proc = 15309 6400
Setting up Verlet run ...
  Unit style  : real
  Current step: 30000
  Time step   : 0.001
Memory usage per processor = 8.02302 Mbytes
Step Temp E_pair E_mol TotEng Press 
   30000    247.13196   -8988.1898            0    -7810.281   -1746.9093 
   40000     278.4583   -8974.6064            0   -7647.3863   -1672.2382 
Loop time of 54.1498 on 12 procs for 10000 steps with 2400 atoms

Performance: 0.016 ns/day, 1504.160 hours/ns, 184.673 timesteps/s
100.0% CPU use with 12 MPI tasks x no OpenMP threads

MPI task timing breakdown:
Section |  min time  |  avg time  |  max time  |%varavg| %total
---------------------------------------------------------------
Pair    | 18.06      | 20.503     | 22.627     |  32.3 | 37.86
Bond    | 0.0033374  | 0.0042043  | 0.005749   |   1.2 |  0.01
Kspace  | 27.53      | 29.596     | 31.995     |  26.1 | 54.65
Neigh   | 0          | 0          | 0          |   0.0 |  0.00
Comm    | 2.1632     | 2.2267     | 2.3306     |   3.3 |  4.11
Output  | 4.0054e-05 | 4.2379e-05 | 6.7949e-05 |   0.1 |  0.00
Modify  | 1.6599     | 1.6892     | 1.7404     |   2.4 |  3.12
Other   |            | 0.1312     |            |       |  0.24

Nlocal:    200 ave 218 max 185 min
Histogram: 2 1 2 2 1 0 0 1 2 1
Nghost:    4740.58 ave 4800 max 4664 min
Histogram: 2 0 0 0 2 2 1 3 1 1
Neighs:    71489.2 ave 80171 max 62590 min
Histogram: 1 1 2 1 2 1 0 2 0 2

Total # of neighbors = 857871
Ave neighs/atom = 357.446
Ave special neighs/atom = 2
Neighbor list builds = 0
Dangerous builds = 0
PPPM initialization ...
  G vector (1/distance) = 0.336942
  grid = 40 40 40
  stencil order = 5
  estimated absolute RMS force accuracy = 0.000391029
  estimated relative force accuracy = 1.17757e-06
  using double precision FFTs
  3d grid and FFT values/proc = 15309 6400
Setting up Verlet run ...
  Unit style  : real
  Current step: 40000
  Time step   : 0.002
Memory usage per processor = 8.02302 Mbytes
Step Temp E_pair E_mol TotEng Press 
   40000     278.4583   -8974.6064            0   -7647.3863   -1672.2177 
   50000    306.09672   -8831.0173            0   -7372.0639   -844.16487 
Loop time of 53.7351 on 12 procs for 10000 steps with 2400 atoms

Performance: 0.032 ns/day, 746.321 hours/ns, 186.098 timesteps/s
100.0% CPU use with 12 MPI tasks x no OpenMP threads

MPI task timing breakdown:
Section |  min time  |  avg time  |  max time  |%varavg| %total
---------------------------------------------------------------
Pair    | 18.165     | 20.503     | 22.363     |  29.3 | 38.16
Bond    | 0.0033417  | 0.0041027  | 0.0056729  |   1.2 |  0.01
Kspace  | 27.397     | 29.21      | 31.517     |  24.0 | 54.36
Neigh   | 0          | 0          | 0          |   0.0 |  0.00
Comm    | 2.1316     | 2.2057     | 2.278      |   2.9 |  4.10
Output  | 3.9816e-05 | 4.2756e-05 | 6.7949e-05 |   0.1 |  0.00
Modify  | 1.649      | 1.6804     | 1.7339     |   2.4 |  3.13
Other   |            | 0.1321     |            |       |  0.25

Nlocal:    200 ave 214 max 188 min
Histogram: 2 1 2 1 2 0 0 1 1 2
Nghost:    4730.83 ave 4783 max 4660 min
Histogram: 2 0 0 1 1 2 2 1 2 1
Neighs:    71496.2 ave 79538 max 63190 min
Histogram: 1 2 0 2 0 3 1 1 0 2

Total # of neighbors = 857955
Ave neighs/atom = 357.481
Ave special neighs/atom = 2
Neighbor list builds = 0
Dangerous builds = 0
PPPM initialization ...
  G vector (1/distance) = 0.336942
  grid = 40 40 40
  stencil order = 5
  estimated absolute RMS force accuracy = 0.000391029
  estimated relative force accuracy = 1.17757e-06
  using double precision FFTs
  3d grid and FFT values/proc = 15309 6400
Setting up Verlet run ...
  Unit style  : real
  Current step: 50000
  Time step   : 0.005
Memory usage per processor = 8.02302 Mbytes
Step Temp E_pair E_mol TotEng Press 
   50000    306.09672   -8831.0173            0   -7372.0639   -844.16193 
   60000    304.87595   -8806.8703            0   -7353.7354   -872.95414 
Loop time of 53.8087 on 12 procs for 10000 steps with 2400 atoms

Performance: 0.080 ns/day, 298.937 hours/ns, 185.844 timesteps/s
100.0% CPU use with 12 MPI tasks x no OpenMP threads

MPI task timing breakdown:
Section |  min time  |  avg time  |  max time  |%varavg| %total
---------------------------------------------------------------
Pair    | 18.176     | 20.516     | 22.642     |  35.3 | 38.13
Bond    | 0.0027027  | 0.0041557  | 0.0058579  |   1.3 |  0.01
Kspace  | 27.188     | 29.246     | 31.545     |  28.7 | 54.35
Neigh   | 0.0073969  | 0.0074148  | 0.0074399  |   0.0 |  0.01
Comm    | 2.1368     | 2.199      | 2.2791     |   3.3 |  4.09
Output  | 3.9101e-05 | 4.2637e-05 | 7.1049e-05 |   0.1 |  0.00
Modify  | 1.6693     | 1.7024     | 1.7591     |   2.5 |  3.16
Other   |            | 0.1336     |            |       |  0.25

Nlocal:    200 ave 219 max 184 min
Histogram: 1 3 2 0 1 0 2 0 1 2
Nghost:    4734.17 ave 4786 max 4669 min
Histogram: 1 1 1 1 1 1 2 0 2 2
Neighs:    71464.1 ave 80184 max 62639 min
Histogram: 1 3 0 0 1 2 0 3 1 1

Total # of neighbors = 857569
Ave neighs/atom = 357.32
Ave special neighs/atom = 2
Neighbor list builds = 2
Dangerous builds = 0
PPPM initialization ...
  G vector (1/distance) = 0.336942
  grid = 40 40 40
  stencil order = 5
  estimated absolute RMS force accuracy = 0.000391029
  estimated relative force accuracy = 1.17757e-06
  using double precision FFTs
  3d grid and FFT values/proc = 15309 6400
Setting up Verlet run ...
  Unit style  : real
  Current step: 60000
  Time step   : 0.01
Memory usage per processor = 8.02302 Mbytes
Step Temp E_pair E_mol TotEng Press 
   60000    304.87595   -8806.8703            0   -7353.7354   -872.95343 
   70000    306.55726   -8778.9116            0   -7317.7631    607.43271 
Loop time of 54.0768 on 12 procs for 10000 steps with 2400 atoms

Performance: 0.160 ns/day, 150.213 hours/ns, 184.922 timesteps/s
100.0% CPU use with 12 MPI tasks x no OpenMP threads

MPI task timing breakdown:
Section |  min time  |  avg time  |  max time  |%varavg| %total
---------------------------------------------------------------
Pair    | 18.46      | 20.507     | 22.568     |  30.4 | 37.92
Bond    | 0.0030801  | 0.0041515  | 0.0052958  |   1.0 |  0.01
Kspace  | 27.518     | 29.484     | 31.465     |  24.6 | 54.52
Neigh   | 0.014578   | 0.014594   | 0.014617   |   0.0 |  0.03
Comm    | 2.1399     | 2.2173     | 2.2784     |   2.7 |  4.10
Output  | 4.0054e-05 | 4.3035e-05 | 7.0095e-05 |   0.1 |  0.00
Modify  | 1.6894     | 1.7185     | 1.7696     |   2.3 |  3.18
Other   |            | 0.1314     |            |       |  0.24

Nlocal:    200 ave 216 max 189 min
Histogram: 4 1 1 0 1 1 0 2 1 1
Nghost:    4738.67 ave 4777 max 4672 min
Histogram: 1 0 1 0 1 1 2 2 2 2
Neighs:    71496.2 ave 80404 max 64216 min
Histogram: 2 2 2 0 0 2 2 0 0 2

Total # of neighbors = 857954
Ave neighs/atom = 357.481
Ave special neighs/atom = 2
Neighbor list builds = 4
Dangerous builds = 0
PPPM initialization ...
  G vector (1/distance) = 0.336942
  grid = 40 40 40
  stencil order = 5
  estimated absolute RMS force accuracy = 0.000391029
  estimated relative force accuracy = 1.17757e-06
  using double precision FFTs
  3d grid and FFT values/proc = 15309 6400
Setting up Verlet run ...
  Unit style  : real
  Current step: 70000
  Time step   : 0.02
Memory usage per processor = 8.02302 Mbytes
Step Temp E_pair E_mol TotEng Press 
   70000    306.55726   -8778.9116            0   -7317.7631    607.47184 
   80000    294.79719   -8795.3099            0   -7390.2135   -163.22168 
Loop time of 54.3717 on 12 procs for 10000 steps with 2400 atoms

Performance: 0.318 ns/day, 75.516 hours/ns, 183.919 timesteps/s
100.0% CPU use with 12 MPI tasks x no OpenMP threads

MPI task timing breakdown:
Section |  min time  |  avg time  |  max time  |%varavg| %total
---------------------------------------------------------------
Pair    | 18.01      | 20.528     | 22.875     |  30.6 | 37.75
Bond    | 0.0031164  | 0.0042083  | 0.0055566  |   1.2 |  0.01
Kspace  | 27.446     | 29.752     | 32.2       |  24.9 | 54.72
Neigh   | 0.032546   | 0.032674   | 0.032783   |   0.0 |  0.06
Comm    | 2.1496     | 2.2058     | 2.2765     |   2.5 |  4.06
Output  | 4.1962e-05 | 4.4942e-05 | 7.2002e-05 |   0.1 |  0.00
Modify  | 1.6866     | 1.7168     | 1.7684     |   2.4 |  3.16
Other   |            | 0.1322     |            |       |  0.24

Nlocal:    200 ave 211 max 187 min
Histogram: 2 0 1 1 0 3 0 3 0 2
Nghost:    4691.5 ave 4755 max 4629 min
Histogram: 2 1 0 0 3 1 2 1 1 1
Neighs:    71485.5 ave 79333 max 62425 min
Histogram: 1 2 0 0 1 4 0 1 2 1

Total # of neighbors = 857826
Ave neighs/atom = 357.428
Ave special neighs/atom = 2
Neighbor list builds = 9
Dangerous builds = 0
PPPM initialization ...
  G vector (1/distance) = 0.336942
  grid = 40 40 40
  stencil order = 5
  estimated absolute RMS force accuracy = 0.000391029
  estimated relative force accuracy = 1.17757e-06
  using double precision FFTs
  3d grid and FFT values/proc = 15309 6400
Setting up Verlet run ...
  Unit style  : real
  Current step: 80000
  Time step   : 0.05
Memory usage per processor = 8.02302 Mbytes
Step Temp E_pair E_mol TotEng Press 
   80000    294.79719   -8795.3099            0   -7390.2135   -163.42029 
   90000    310.57358   -8851.3631            0   -7371.0715    1216.8067 
Loop time of 54.476 on 12 procs for 10000 steps with 2400 atoms

Performance: 0.793 ns/day, 30.264 hours/ns, 183.567 timesteps/s
100.0% CPU use with 12 MPI tasks x no OpenMP threads

MPI task timing breakdown:
Section |  min time  |  avg time  |  max time  |%varavg| %total
---------------------------------------------------------------
Pair    | 18.108     | 20.55      | 22.757     |  30.0 | 37.72
Bond    | 0.0031106  | 0.0042375  | 0.0053604  |   1.1 |  0.01
Kspace  | 27.673     | 29.792     | 32.165     |  24.2 | 54.69
Neigh   | 0.07985    | 0.08011    | 0.080362   |   0.1 |  0.15
Comm    | 2.1457     | 2.2132     | 2.2688     |   2.5 |  4.06
Output  | 3.8862e-05 | 4.2637e-05 | 6.8903e-05 |   0.1 |  0.00
Modify  | 1.6799     | 1.7052     | 1.7527     |   2.1 |  3.13
Other   |            | 0.1316     |            |       |  0.24

Nlocal:    200 ave 213 max 184 min
Histogram: 1 2 1 0 1 0 1 2 3 1
Nghost:    4708.42 ave 4756 max 4663 min
Histogram: 2 1 1 0 1 3 0 2 1 1
Neighs:    71441.2 ave 82124 max 60403 min
Histogram: 1 1 1 1 2 2 1 0 2 1

Total # of neighbors = 857294
Ave neighs/atom = 357.206
Ave special neighs/atom = 2
Neighbor list builds = 22
Dangerous builds = 0
PPPM initialization ...
  G vector (1/distance) = 0.336942
  grid = 40 40 40
  stencil order = 5
  estimated absolute RMS force accuracy = 0.000391029
  estimated relative force accuracy = 1.17757e-06
  using double precision FFTs
  3d grid and FFT values/proc = 15309 6400
Setting up Verlet run ...
  Unit style  : real
  Current step: 90000
  Time step   : 0.1
Memory usage per processor = 8.02302 Mbytes
Step Temp E_pair E_mol TotEng Press 
   90000    310.57358   -8851.3631            0   -7371.0715    1217.4038 
  100000      300.373   -8781.5623            0   -7349.8899    16.788189 
Loop time of 54.0045 on 12 procs for 10000 steps with 2400 atoms

Performance: 1.600 ns/day, 15.001 hours/ns, 185.170 timesteps/s
100.0% CPU use with 12 MPI tasks x no OpenMP threads

MPI task timing breakdown:
Section |  min time  |  avg time  |  max time  |%varavg| %total
---------------------------------------------------------------
Pair    | 18.985     | 20.656     | 21.686     |  18.9 | 38.25
Bond    | 0.0032737  | 0.0041197  | 0.0053627  |   1.1 |  0.01
Kspace  | 28.136     | 29.128     | 30.775     |  15.6 | 53.94
Neigh   | 0.1684     | 0.16875    | 0.16923    |   0.1 |  0.31
Comm    | 2.1517     | 2.2149     | 2.2632     |   2.1 |  4.10
Output  | 3.9816e-05 | 4.3313e-05 | 6.9857e-05 |   0.1 |  0.00
Modify  | 1.6828     | 1.701      | 1.7341     |   1.5 |  3.15
Other   |            | 0.1324     |            |       |  0.25

Nlocal:    200 ave 211 max 185 min
Histogram: 1 0 0 3 1 1 2 1 0 3
Nghost:    4726.67 ave 4773 max 4685 min
Histogram: 1 0 3 1 1 2 2 1 0 1
Neighs:    71450.2 ave 76774 max 65460 min
Histogram: 1 2 1 1 0 0 3 0 2 2

Total # of neighbors = 857403
Ave neighs/atom = 357.251
Ave special neighs/atom = 2
Neighbor list builds = 47
Dangerous builds = 0
PPPM initialization ...
  G vector (1/distance) = 0.336942
  grid = 40 40 40
  stencil order = 5
  estimated absolute RMS force accuracy = 0.000391029
  estimated relative force accuracy = 1.17757e-06
  using double precision FFTs
  3d grid and FFT values/proc = 15309 6400
Setting up Verlet run ...
  Unit style  : real
  Current step: 100000
  Time step   : 0.2
Memory usage per processor = 8.02302 Mbytes
Step Temp E_pair E_mol TotEng Press 
  100000      300.373   -8781.5623            0   -7349.8899    16.722778 
  110000    298.89509   -8816.1155            0   -7391.4872   -270.50772 
Loop time of 54.0891 on 12 procs for 10000 steps with 2400 atoms

Performance: 3.195 ns/day, 7.512 hours/ns, 184.880 timesteps/s
100.0% CPU use with 12 MPI tasks x no OpenMP threads

MPI task timing breakdown:
Section |  min time  |  avg time  |  max time  |%varavg| %total
---------------------------------------------------------------
Pair    | 19.668     | 20.776     | 21.614     |  14.1 | 38.41
Bond    | 0.0032327  | 0.0041182  | 0.0048764  |   0.9 |  0.01
Kspace  | 28.063     | 28.883     | 29.968     |  11.7 | 53.40
Neigh   | 0.3448     | 0.34568    | 0.34665    |   0.1 |  0.64
Comm    | 2.1901     | 2.2339     | 2.278      |   1.9 |  4.13
Output  | 4.1008e-05 | 4.3829e-05 | 7.1049e-05 |   0.1 |  0.00
Modify  | 1.6853     | 1.7141     | 1.7532     |   1.8 |  3.17
Other   |            | 0.1326     |            |       |  0.25

Nlocal:    200 ave 210 max 190 min
Histogram: 1 2 1 0 3 0 1 0 1 3
Nghost:    4705.75 ave 4730 max 4670 min
Histogram: 1 1 1 0 1 3 0 0 2 3
Neighs:    71492.8 ave 80242 max 65818 min
Histogram: 2 3 2 0 1 1 0 0 1 2

Total # of neighbors = 857913
Ave neighs/atom = 357.464
Ave special neighs/atom = 2
Neighbor list builds = 95
Dangerous builds = 0
PPPM initialization ...
  G vector (1/distance) = 0.336942
  grid = 40 40 40
  stencil order = 5
  estimated absolute RMS force accuracy = 0.000391029
  estimated relative force accuracy = 1.17757e-06
  using double precision FFTs
  3d grid and FFT values/proc = 15309 6400
Setting up Verlet run ...
  Unit style  : real
  Current step: 110000
  Time step   : 0.5
Memory usage per processor = 8.02302 Mbytes
Step Temp E_pair E_mol TotEng Press 
  110000    298.89509   -8816.1155            0   -7391.4872   -269.79964 
  120000    313.57441   -8751.2872            0   -7256.6927    421.66293 
Loop time of 55.3106 on 12 procs for 10000 steps with 2400 atoms

Performance: 7.810 ns/day, 3.073 hours/ns, 180.797 timesteps/s
100.0% CPU use with 12 MPI tasks x no OpenMP threads

MPI task timing breakdown:
Section |  min time  |  avg time  |  max time  |%varavg| %total
---------------------------------------------------------------
Pair    | 19.478     | 20.983     | 22.255     |  17.9 | 37.94
Bond    | 0.0033176  | 0.0043927  | 0.0056276  |   1.1 |  0.01
Kspace  | 28.087     | 29.339     | 30.81      |  15.1 | 53.04
Neigh   | 0.84509    | 0.84718    | 0.84917    |   0.2 |  1.53
Comm    | 2.1895     | 2.2667     | 2.3347     |   2.3 |  4.10
Output  | 5.3167e-05 | 5.6048e-05 | 8.2016e-05 |   0.1 |  0.00
Modify  | 1.7103     | 1.7365     | 1.7708     |   1.7 |  3.14
Other   |            | 0.1338     |            |       |  0.24

Nlocal:    200 ave 216 max 184 min
Histogram: 1 1 1 2 2 1 1 1 0 2
Nghost:    4702 ave 4728 max 4665 min
Histogram: 1 0 2 1 0 1 1 4 0 2
Neighs:    71451.2 ave 77773 max 64211 min
Histogram: 2 1 1 1 0 0 2 2 1 2

Total # of neighbors = 857415
Ave neighs/atom = 357.256
Ave special neighs/atom = 2
Neighbor list builds = 230
Dangerous builds = 0
PPPM initialization ...
  G vector (1/distance) = 0.336942
  grid = 40 40 40
  stencil order = 5
  estimated absolute RMS force accuracy = 0.000391029
  estimated relative force accuracy = 1.17757e-06
  using double precision FFTs
  3d grid and FFT values/proc = 15309 6400
Setting up Verlet run ...
  Unit style  : real
  Current step: 120000
  Time step   : 1
Memory usage per processor = 8.02302 Mbytes
Step Temp E_pair E_mol TotEng Press 
  120000    313.57441   -8751.2872            0   -7256.6927     417.7377 
  130000      298.792   -8826.3304            0   -7402.1935   -327.70116 
Loop time of 56.5383 on 12 procs for 10000 steps with 2400 atoms

Performance: 15.282 ns/day, 1.571 hours/ns, 176.871 timesteps/s
100.0% CPU use with 12 MPI tasks x no OpenMP threads

MPI task timing breakdown:
Section |  min time  |  avg time  |  max time  |%varavg| %total
---------------------------------------------------------------
Pair    | 19.621     | 21.123     | 22.415     |  17.9 | 37.36
Bond    | 0.0033715  | 0.0042167  | 0.0049007  |   0.7 |  0.01
Kspace  | 28.146     | 29.478     | 30.954     |  15.2 | 52.14
Neigh   | 1.6992     | 1.7032     | 1.7069     |   0.2 |  3.01
Comm    | 2.2751     | 2.3365     | 2.3903     |   2.3 |  4.13
Output  | 4.22e-05   | 4.4763e-05 | 7.1049e-05 |   0.1 |  0.00
Modify  | 1.7391     | 1.7591     | 1.7909     |   1.5 |  3.11
Other   |            | 0.1342     |            |       |  0.24

Nlocal:    200 ave 211 max 184 min
Histogram: 2 0 1 0 1 2 0 2 2 2
Nghost:    4734.17 ave 4781 max 4678 min
Histogram: 1 2 1 1 0 1 1 2 1 2
Neighs:    71407.1 ave 82553 max 64685 min
Histogram: 2 2 2 0 2 2 1 0 0 1

Total # of neighbors = 856885
Ave neighs/atom = 357.035
Ave special neighs/atom = 2
Neighbor list builds = 462
Dangerous builds = 0
PPPM initialization ...
  G vector (1/distance) = 0.336942
  grid = 40 40 40
  stencil order = 5
  estimated absolute RMS force accuracy = 0.000391029
  estimated relative force accuracy = 1.17757e-06
  using double precision FFTs
  3d grid and FFT values/proc = 15309 6400
Setting up Verlet run ...
  Unit style  : real
  Current step: 0
  Time step   : 1
Memory usage per processor = 8.02874 Mbytes
Step Temp E_pair E_mol TotEng Press 
       0      298.792   -8826.3304            0   -7402.1935   -324.56744 
   20000     304.0037   -8848.0338            0   -7399.0564    515.40841 
Loop time of 113.258 on 12 procs for 20000 steps with 2400 atoms

Performance: 15.257 ns/day, 1.573 hours/ns, 176.587 timesteps/s
100.0% CPU use with 12 MPI tasks x no OpenMP threads

MPI task timing breakdown:
Section |  min time  |  avg time  |  max time  |%varavg| %total
---------------------------------------------------------------
Pair    | 38.82      | 42.295     | 44.981     |  34.4 | 37.34
Bond    | 0.0065198  | 0.0083432  | 0.009933   |   1.3 |  0.01
Kspace  | 56.374     | 59.108     | 62.485     |  28.9 | 52.19
Neigh   | 3.3794     | 3.3881     | 3.3965     |   0.3 |  2.99
Comm    | 4.5476     | 4.6698     | 4.7494     |   2.8 |  4.12
Output  | 4.1962e-05 | 4.4624e-05 | 7.391e-05  |   0.1 |  0.00
Modify  | 3.472      | 3.5205     | 3.5976     |   2.6 |  3.11
Other   |            | 0.2687     |            |       |  0.24

Nlocal:    200 ave 227 max 179 min
Histogram: 1 1 0 2 5 1 1 0 0 1
Nghost:    4743.67 ave 4796 max 4700 min
Histogram: 3 0 0 3 1 1 2 0 0 2
Neighs:    71430.5 ave 85384 max 65812 min
Histogram: 4 2 0 3 1 1 0 0 0 1

Total # of neighbors = 857166
Ave neighs/atom = 357.152
Ave special neighs/atom = 2
Neighbor list builds = 911
Dangerous builds = 0
PPPM initialization ...
  G vector (1/distance) = 0.336942
  grid = 40 40 40
  stencil order = 5
  estimated absolute RMS force accuracy = 0.000391029
  estimated relative force accuracy = 1.17757e-06
  using double precision FFTs
  3d grid and FFT values/proc = 15309 6400
Setting up Verlet run ...
  Unit style  : real
  Current step: 0
  Time step   : 1
Memory usage per processor = 9.53053 Mbytes
Step Temp TempAve Press PressAve PotEng PEAve KinEng KEAve TotEng TEAve Density 
       0     304.0037            0    515.38267            0   -8848.0338            0    1448.9775            0   -7399.0564            0   0.98554079 
  100000    309.57252    303.23356    27.026123   -18.495269   -8907.3114   -8835.8433    1475.5202    1445.3068   -7431.7911   -7390.5365   0.98554079 
  200000     304.6122    303.28493    963.44379   -9.8379085   -8815.7108   -8843.6291    1451.8778    1445.5516    -7363.833   -7398.0775   0.98554079 
  300000    305.33519    303.25719    610.27474   -35.133834   -8777.8896   -8846.1247    1455.3238    1445.4194   -7322.5659   -7400.7053   0.98554079 
  400000    306.06336    303.18512   -246.40866    -69.61987    -8854.002   -8840.7328    1458.7945    1445.0759   -7395.2075   -7395.6569   0.98554079 
  500000    311.45122    303.15216    602.51368   -25.751776   -8848.7107    -8842.166    1484.4747    1444.9188    -7364.236   -7397.2473   0.98554079 
  600000    306.52094    303.25468   -303.56773   -46.120022   -8884.3123   -8837.7026    1460.9754    1445.4074   -7423.3369   -7392.2951   0.98554079 
  700000    295.18084    303.30572    43.685077   -32.504398   -8840.2578   -8838.7033     1406.925    1445.6507   -7433.3328   -7393.0526   0.98554079 
  800000    295.63463    303.02338   -342.70976    -38.44432   -8862.1391   -8840.8821    1409.0879     1444.305   -7453.0512   -7396.5771   0.98554079 
  900000    300.86532     303.1313   -617.58622   -49.837286   -8800.1152   -8848.1941     1434.019    1444.8193   -7366.0962   -7403.3748   0.98554079 
 1000000    305.20059    303.29899   -328.67993   -63.334369   -8844.9471   -8836.3966    1454.6822    1445.6186   -7390.2649   -7390.7779   0.98554079 
 1100000    305.74115    302.97452    265.53514   -58.455861   -8796.1143   -8844.8518    1457.2587    1444.0721   -7338.8556   -7400.7798   0.98554079 
 1200000    296.97446    302.97552    -835.9016   -65.213389   -8839.3573   -8840.3946    1415.4739    1444.0768   -7423.8834   -7396.3178   0.98554079 
 1300000    304.24755    303.18628    46.998701   -24.436336   -8853.8153   -8841.0438    1450.1398    1445.0814   -7403.6756   -7395.9624   0.98554079 
 1400000    288.57551    303.07204    -435.7051   -34.523674   -8833.5108   -8839.8236    1375.4419    1444.5369   -7458.0689   -7395.2867   0.98554079 
 1500000    289.30904    303.24534   -524.74291   -46.022346   -8897.7922   -8840.2308    1378.9381    1445.3629   -7518.8541   -7394.8679   0.98554079 
 1600000     294.8234    303.06857   -328.94683   -11.195714   -8838.7895   -8847.3614    1405.2213    1444.5203   -7433.5682    -7402.841   0.98554079 
 1700000    301.60806    303.04019    176.67938   -67.597776   -8838.1477   -8834.0387    1437.5591    1444.3851   -7400.5886   -7389.6537   0.98554079 
 1800000    303.54403    303.15307    28.128589   -32.376974    -8851.394   -8838.8151    1446.7865    1444.9231   -7404.6074    -7393.892   0.98554079 
 1900000    286.24301    303.23382   -577.58463   -15.031776   -8807.2672   -8844.0132    1364.3244     1445.308   -7442.9427   -7398.7052   0.98554079 
 2000000    297.61139     303.1987    420.89355   -28.341061   -8859.2839   -8835.3765    1418.5097    1445.1406   -7440.7742   -7390.2359   0.98554079 
 2100000    299.91824    303.21716   -502.99201   -64.045012   -8853.2637   -8836.4327    1429.5049    1445.2286   -7423.7588   -7391.2041   0.98554079 
 2200000    304.86072     303.1229   -116.09814   -40.055178      -8775.3    -8851.841    1453.0623    1444.7793   -7322.2376   -7407.0617   0.98554079 
 2300000    302.82627    303.41405   -421.03345    -21.58258    -8823.841   -8835.8103    1443.3655     1446.167   -7380.4756   -7389.6432   0.98554079 
 2400000    305.47283     303.0924    721.08999   -43.736535   -8814.9525   -8842.0123    1455.9798    1444.6339   -7358.9727   -7397.3784   0.98554079 
 2500000    300.73929    303.10417   -893.22832   -33.375164   -8912.8425   -8846.4662    1433.4183    1444.6901   -7479.4243   -7401.7762   0.98554079 
 2600000    300.95117    303.31899    -876.9361   -67.130166   -8845.9807   -8839.3183    1434.4281    1445.7139   -7411.5526   -7393.6044   0.98554079 
 2700000    309.73015     303.0517    499.68461   -24.966522   -8841.9604   -8842.7232    1476.2715    1444.4399   -7365.6889   -7398.2832   0.98554079 
 2800000    299.07951    303.22575     463.8544   -29.149682   -8790.1568   -8834.0777    1425.5072    1445.2695   -7364.6496   -7388.8081   0.98554079 
 2900000    308.04248    303.35477    593.95364   -35.402844   -8827.7412   -8845.7348    1468.2276    1445.8845   -7359.5136   -7399.8503   0.98554079 
 3000000    310.32739    303.16368   -60.161373   -47.198796   -8835.6219   -8839.4437    1479.1182    1444.9737   -7356.5037     -7394.47   0.98554079 
 3100000    301.37132    303.05039    453.61685   -64.080138    -8834.842   -8843.1427    1436.4307    1444.4337   -7398.4113    -7398.709   0.98554079 
 3200000    301.00238    303.20961    220.30345   -21.985884   -8794.3113   -8836.7535    1434.6722    1445.1926    -7359.639   -7391.5609   0.98554079 
 3300000    310.32268    303.03562   -66.502368   -43.073465   -8845.2021   -8842.5255    1479.0957    1444.3633   -7366.1063   -7398.1622   0.98554079 
 3400000    300.76447    303.10097    936.26224    -40.49789   -8889.1846   -8840.3523    1433.5383    1444.6748   -7455.6463   -7395.6776   0.98554079 
 3500000    299.29023    303.27706   -59.662018   -5.0071825   -8828.5508   -8843.2034    1426.5116    1445.5141   -7402.0392   -7397.6893   0.98554079 
 3600000    289.31129    303.09866   -632.28958     22.00113   -8835.2936   -8836.3081    1378.9488    1444.6638   -7456.3448   -7391.6443   0.98554079 
 3700000    295.17168    303.34106    406.82427   -4.8573989   -8892.0784   -8839.1266    1406.8813    1445.8191   -7485.1971   -7393.3074   0.98554079 
 3800000    303.12927    303.03382   -362.05311   -43.862064   -8928.1182   -8848.9885    1444.8097    1444.3547   -7483.3085   -7404.6338   0.98554079 
 3900000    309.28493    303.33135   -406.66259   -8.0644905   -8822.0478   -8835.4924    1474.1495    1445.7729   -7347.8984   -7389.7196   0.98554079 
 4000000    313.48219    303.10672     200.8923    -47.35235   -8897.5759   -8839.5326     1494.155    1444.7022   -7403.4209   -7394.8303   0.98554079 
 4100000    299.69358    302.87357   -62.327649    5.2615947   -8852.1699    -8843.723    1428.4341    1443.5909   -7423.7358   -7400.1321   0.98554079 
 4200000    294.04197    303.28638    199.00642    3.7625891   -8896.8394   -8837.3928    1401.4967    1445.5585   -7495.3427   -7391.8343   0.98554079 
 4300000    294.30622    303.04642   -573.21691   -36.333943   -8823.9132   -8842.3807    1402.7562    1444.4148    -7421.157   -7397.9659   0.98554079 
 4400000    300.09732    303.13736    -563.9413     1.875471   -8869.0117   -8837.0882    1430.3584    1444.8482   -7438.6533     -7392.24   0.98554079 
 4500000    300.80437    303.04928   -296.91137   -42.272696   -8789.1643   -8841.8577    1433.7285    1444.4284   -7355.4359   -7397.4293   0.98554079 
 4600000    308.76131    303.06732   -291.83253   -43.715733   -8812.3618   -8836.2305    1471.6537    1444.5144   -7340.7081   -7391.7161   0.98554079 
 4700000    301.46019     303.3336    75.028074   -17.010652   -8819.6797   -8843.3733    1436.8543    1445.7836   -7382.8254   -7397.5898   0.98554079 
 4800000     300.4218     303.1503    112.17843    13.045055    -8927.877   -8839.1228     1431.905    1444.9099    -7495.972   -7394.2129   0.98554079 
 4900000    305.15124    302.91668   -447.19606   -51.194532   -8811.4056   -8837.9348     1454.447    1443.7964   -7356.9586   -7394.1384   0.98554079 
 5000000    300.48875    303.02075    204.19196   -9.7801258   -8825.8181   -8845.6398    1432.2241    1444.2924    -7393.594   -7401.3473   0.98554079 
 5100000    301.53572     302.8569   -247.57011   -20.638534   -8789.2075   -8851.2093    1437.2143    1443.5115   -7351.9932   -7407.6979   0.98554079 
 5200000    308.22908    303.07702   -449.93652   -52.080491   -8827.1267   -8841.7241     1469.117    1444.5606   -7358.0097   -7397.1635   0.98554079 
 5300000    302.58905    303.08904    -154.3307   -24.080467   -8871.8599   -8836.2609    1442.2348    1444.6179   -7429.6251    -7391.643   0.98554079 
 5400000    295.66264    303.23493   -514.00848   -31.157775   -8865.6914   -8846.1641    1409.2213    1445.3133   -7456.4701   -7400.8508   0.98554079 
 5500000     311.7803    303.36991    243.62095   -37.752646   -8841.5473   -8838.6163    1486.0432    1445.9566   -7355.5041   -7392.6596   0.98554079 
 5600000    302.64641    303.27042    63.148993    10.904791   -8847.7224    -8836.144    1442.5082    1445.4824   -7405.2142   -7390.6616   0.98554079 
 5700000    300.97083    303.34319   -447.05004   -20.986153   -8829.5756   -8843.6943    1434.5219    1445.8293   -7395.0538    -7397.865   0.98554079 
 5800000    308.94642    303.30051   -1.5383548   -5.9492405   -8904.2163   -8844.4711     1472.536    1445.6259   -7431.6803   -7398.8452   0.98554079 
 5900000    307.34345    303.24542    782.49113   -18.515324   -8835.0065   -8843.0738    1464.8958    1445.3633   -7370.1108   -7397.7105   0.98554079 
 6000000    315.62008    303.05244    1126.8028   -49.680535   -8816.9459   -8842.5823    1504.3448    1444.4435   -7312.6011   -7398.1389   0.98554079 
 6100000    304.68501    303.16669    163.32843   -17.306041   -8841.4386   -8844.0908    1452.2248     1444.988   -7389.2138   -7399.1027   0.98554079 
 6200000     310.3143    303.22513    346.41797   -25.797655   -8809.5567   -8833.3392    1479.0558    1445.2666   -7330.5009   -7388.0726   0.98554079 
 6300000    309.67284    303.11695    525.87478    32.590446   -8779.1231   -8845.8285    1475.9984    1444.7509   -7303.1248   -7401.0775   0.98554079 
 6400000    294.77973    303.23017   -774.62363     11.87458   -8880.2216   -8834.0106    1405.0131    1445.2906   -7475.2085     -7388.72   0.98554079 
 6500000    305.70829    303.06444    249.60016   -55.766123   -8830.7445   -8837.9272    1457.1021    1444.5007   -7373.6424   -7393.4265   0.98554079 
 6600000    298.47519    303.39306   -618.77522   -2.5127158   -8912.0934   -8836.5293    1422.6269     1446.067   -7489.4665   -7390.4623   0.98554079 
 6700000    289.78016    302.99283    -334.7939   -29.495507   -8769.9583   -8838.8191    1381.1836    1444.1593   -7388.7747   -7394.6598   0.98554079 
 6800000    306.13358    303.29062    400.96196   -14.478123     -8786.79   -8842.7623    1459.1291    1445.5787   -7327.6609   -7397.1836   0.98554079 
 6900000    295.63865    303.18904    38.771507   -27.336012   -8751.8252   -8840.8132     1409.107    1445.0946   -7342.7182   -7395.7187   0.98554079 
 7000000    301.66514    303.14912   -42.748646   -30.156652   -8773.5576   -8838.8151    1437.8311    1444.9043   -7335.7265   -7393.9108   0.98554079 
 7100000    297.52881    303.07137     140.8324   -50.385022   -8801.0906    -8842.912    1418.1161    1444.5337   -7382.9744   -7398.3783   0.98554079 
 7200000    299.31253    303.11362    160.82656   -13.034081   -8824.4658   -8843.2771    1426.6179    1444.7351   -7397.8479    -7398.542   0.98554079 
 7300000    308.16139    303.23773    297.71964   -76.661165   -8850.6795   -8842.4084    1468.7943    1445.3266   -7381.8851   -7397.0818   0.98554079 
 7400000    300.22531     303.1578   -44.771067   -21.689595    -8865.821   -8845.9709    1430.9685    1444.9457   -7434.8525   -7401.0253   0.98554079 
 7500000    313.32985    302.99116   -121.58773   -24.555413   -8856.7178   -8849.7374    1493.4288    1444.1514    -7363.289    -7405.586   0.98554079 
 7600000    313.04612    303.08905   -185.70323   -25.741832   -8802.9088   -8842.2099    1492.0765    1444.6179   -7310.8323    -7397.592   0.98554079 
 7700000    308.43737    303.02711   -79.974183   -36.969848     -8922.59   -8840.3932    1470.1098    1444.3228   -7452.4803   -7396.0704   0.98554079 
 7800000    309.36224    302.94046    198.79714   -12.321477   -8834.3271   -8843.5786     1474.518    1443.9098   -7359.8092   -7399.6689   0.98554079 
 7900000    305.35135    303.29873   -345.35122   -52.988391   -8907.7717    -8834.837    1455.4008    1445.6174   -7452.3709   -7389.2196   0.98554079 
 8000000    304.17922    303.25159   -233.87796   -5.1598424   -8852.0003   -8846.7741    1449.8141    1445.3927   -7402.1862   -7401.3814   0.98554079 
 8100000    310.71126    303.40833    237.59839    5.1438997   -8877.0217   -8844.9609    1480.9478    1446.1398   -7396.0738   -7398.8212   0.98554079 
 8200000    298.95808    302.89638    137.60829   -54.065711   -8906.3669   -8836.4635    1424.9285    1443.6996   -7481.4384   -7392.7639   0.98554079 
 8300000    302.00764    303.12913   -76.408907   -3.4805416   -8855.6098    -8843.156    1439.4636     1444.809   -7416.1461    -7398.347   0.98554079 
 8400000    306.49406    303.33928   -684.11636   -30.698571   -8869.6803   -8831.4039    1460.8473    1445.8106    -7408.833   -7385.5933   0.98554079 
 8500000     312.1654    303.18873    191.65547   0.21534719   -8834.7515     -8838.51    1487.8787    1445.0931   -7346.8727   -7393.4169   0.98554079 
 8600000    306.72654    303.20119   -320.32271   -46.551666   -8919.2171   -8835.7063    1461.9554    1445.1525   -7457.2617   -7390.5538   0.98554079 
 8700000    306.52837    303.30264    146.92184   -49.798178   -8850.1552   -8839.3228    1461.0108     1445.636   -7389.1444   -7393.6868   0.98554079 
 8800000    305.89055    303.06006    46.747427    -45.90981   -8863.5463   -8838.5521    1457.9708    1444.4798   -7405.5755   -7394.0723   0.98554079 
 8900000    322.08989    303.22219   -1017.5439   -31.935894   -8890.7407   -8835.1178     1535.182    1445.2526   -7355.5588   -7389.8653   0.98554079 
 9000000    309.40506    303.23285    246.86291   -73.544817   -8907.3254   -8834.8419    1474.7221    1445.3034   -7432.6034   -7389.5386   0.98554079 
 9100000    292.88388    303.22979   -310.13525   -13.592952   -8848.2874   -8844.9474    1395.9769    1445.2888   -7452.3105   -7399.6586   0.98554079 
 9200000    302.09342    303.02621    365.70104    -34.86929   -8845.3864   -8841.7528    1439.8725    1444.3185   -7405.5139   -7397.4343   0.98554079 
 9300000    306.46987    303.15142    342.98725   -54.117345   -8823.7108   -8840.0966     1460.732    1444.9152   -7362.9788   -7395.1814   0.98554079 
 9400000     306.9844    303.05691    350.70879   -41.215401   -8823.8331   -8836.9338    1463.1845    1444.4648   -7360.6486   -7392.4691   0.98554079 
 9500000    313.01204     302.7951    1066.1003   -30.653739   -8855.7031   -8843.0539    1491.9141    1443.2169    -7363.789    -7399.837   0.98554079 
 9600000    307.92118    303.21695   -155.73884   -46.981844   -8785.6227   -8836.0444    1467.6494    1445.2276   -7317.9733   -7390.8168   0.98554079 
 9700000    301.62287    303.05974    24.647198   -5.6381757   -8862.0981   -8842.6587    1437.6297    1444.4783   -7424.4684   -7398.1804   0.98554079 
 9800000    296.81925    303.16041    160.52144    -19.17521   -8816.9604   -8840.4889    1414.7341    1444.9581   -7402.2263   -7395.5308   0.98554079 
 9900000     302.3785      303.257   -159.10264   -47.203688   -8908.1961   -8838.9555    1441.2313    1445.4185   -7466.9649    -7393.537   0.98554079 
10000000    302.88618    303.35687   -18.965705   -39.224538   -8831.4054   -8841.5118     1443.651    1445.8945   -7387.7544   -7395.6173   0.98554079 
Loop time of 58366.7 on 12 procs for 10000000 steps with 2400 atoms

Performance: 14.803 ns/day, 1.621 hours/ns, 171.331 timesteps/s
100.0% CPU use with 12 MPI tasks x no OpenMP threads

MPI task timing breakdown:
Section |  min time  |  avg time  |  max time  |%varavg| %total
---------------------------------------------------------------
Pair    | 20687      | 22260      | 23545      | 683.0 | 38.14
Bond    | 4.039      | 5.2076     | 6.3995     |  29.2 |  0.01
Kspace  | 28644      | 29888      | 31391      | 579.3 | 51.21
Neigh   | 1691.4     | 1695.6     | 1699.5     |   6.7 |  2.91
Comm    | 2312.1     | 2355.7     | 2408       |  64.5 |  4.04
Output  | 9.3818     | 11.469     | 14.487     |  42.2 |  0.02
Modify  | 1976.8     | 2001.6     | 2045.1     |  54.4 |  3.43
Other   |            | 148.3      |            |       |  0.25

Nlocal:    200 ave 215 max 184 min
Histogram: 1 0 2 1 1 4 1 0 0 2
Nghost:    4705.75 ave 4799 max 4630 min
Histogram: 2 2 0 1 2 1 2 0 1 1
Neighs:    71445.7 ave 82315 max 65301 min
Histogram: 3 2 2 1 0 0 2 1 0 1

Total # of neighbors = 857348
Ave neighs/atom = 357.228
Ave special neighs/atom = 2
Neighbor list builds = 456170
Dangerous builds = 0
 All done! 
[c122:29022] *** Process received signal ***
[c122:29022] Signal: Segmentation fault (11)
[c122:29022] Signal code:  (128)
[c122:29022] Failing at address: (nil)
[c122:29023] *** Process received signal ***
[c122:29023] Signal: Segmentation fault (11)
[c122:29023] Signal code: Address not mapped (1)
[c122:29023] Failing at address: (nil)
[c122:29024] *** Process received signal ***
[c122:29024] Signal: Segmentation fault (11)
[c122:29024] Signal code:  (128)
[c122:29024] Failing at address: (nil)
[c122:29014] *** Process received signal ***
[c122:29015] *** Process received signal ***
[c122:29015] Signal: Segmentation fault (11)
[c122:29015] Signal code:  (128)
[c122:29015] Failing at address: (nil)
[c122:29016] *** Process received signal ***
[c122:29016] Signal: Segmentation fault (11)
[c122:29016] Signal code: Address not mapped (1)
[c122:29016] Failing at address: (nil)
*** Error in `/home/noura/LAMMPS/tests/src_v05/lmp_mpi': free(): invalid pointer: 0x0000000003479cc0 ***
[c122:29017] *** Process received signal ***
[c122:29017] Signal: Aborted (6)
[c122:29017] Signal code:  (-6)
[c122:29018] *** Process received signal ***
[c122:29018] Signal: Segmentation fault (11)
[c122:29018] Signal code:  (128)
[c122:29018] Failing at address: (nil)
[c122:29019] *** Process received signal ***
[c122:29019] Signal: Segmentation fault (11)
[c122:29019] Signal code: Address not mapped (1)
[c122:29019] Failing at address: 0x2b0200002b01
[c122:29020] *** Process received signal ***
[c122:29020] Signal: Segmentation fault (11)
[c122:29020] Signal code: Address not mapped (1)
[c122:29020] Failing at address: (nil)
[c122:29014] Signal: Segmentation fault (11)
[c122:29014] Signal code:  (128)
[c122:29014] Failing at address: (nil)
[c122:29014] [ 0] /lib/x86_64-linux-gnu/libpthread.so.0(+0xf8d0)[0x7f5a5cdbf8d0]
[c122:29014] [ 1] /home/noura/LAMMPS/tests/src_v05/lmp_mpi[0x5eb733]
[c122:29014] [ 2] /home/noura/LAMMPS/tests/src_v05/lmp_mpi[0x5ebca9]
[c122:29014] [ 3] /home/noura/LAMMPS/tests/src_v05/lmp_mpi[0x64896a]
[c122:29014] [ 4] /home/noura/LAMMPS/tests/src_v05/lmp_mpi[0x64b8c1]
[c122:29014] [ 5] /home/noura/LAMMPS/tests/src_v05/lmp_mpi[0x64bb19]
[c122:29014] [ 6] /home/noura/LAMMPS/tests/src_v05/lmp_mpi[0x52f2ad]
[c122:29014] [ 7] /home/noura/LAMMPS/tests/src_v05/lmp_mpi[0x52f342]
[c122:29014] [ 8] /home/noura/LAMMPS/tests/src_v05/lmp_mpi[0x4041be]
[c122:29014] [ 9] /lib/x86_64-linux-gnu/libc.so.6(__libc_start_main+0xf5)[0x7f5a5ca28b45]
[c122:29014] [10] /home/noura/LAMMPS/tests/src_v05/lmp_mpi[0x40427f]
[c122:29014] *** End of error message ***
[c122:29015] [ 0] /lib/x86_64-linux-gnu/libpthread.so.0(+0xf8d0)[0x7f70344dd8d0]
[c122:29015] [ 1] /home/noura/LAMMPS/tests/src_v05/lmp_mpi[0x5eb733]
[c122:29015] [ 2] /home/noura/LAMMPS/tests/src_v05/lmp_mpi[0x5ebca9]
[c122:29015] [ 3] /home/noura/LAMMPS/tests/src_v05/lmp_mpi[0x64896a]
[c122:29015] [ 4] /home/noura/LAMMPS/tests/src_v05/lmp_mpi[0x64b8c1]
[c122:29015] [ 5] /home/noura/LAMMPS/tests/src_v05/lmp_mpi[0x64bb19]
[c122:29015] [ 6] /home/noura/LAMMPS/tests/src_v05/lmp_mpi[0x52f2ad]
[c122:29015] [ 7] /home/noura/LAMMPS/tests/src_v05/lmp_mpi[0x52f342]
[c122:29015] [ 8] /home/noura/LAMMPS/tests/src_v05/lmp_mpi[0x4041be]
[c122:29015] [ 9] /lib/x86_64-linux-gnu/libc.so.6(__libc_start_main+0xf5)[0x7f7034146b45]
[c122:29015] [10] /home/noura/LAMMPS/tests/src_v05/lmp_mpi[0x40427f]
[c122:29015] *** End of error message ***
[c122:29016] [ 0] /lib/x86_64-linux-gnu/libpthread.so.0(+0xf8d0)[0x7f315cf238d0]
[c122:29016] [ 1] /home/noura/LAMMPS/tests/src_v05/lmp_mpi[0x5eb739]
[c122:29016] [ 2] /home/noura/LAMMPS/tests/src_v05/lmp_mpi[0x5ebca9]
[c122:29016] [ 3] /home/noura/LAMMPS/tests/src_v05/lmp_mpi[0x64896a]
[c122:29016] [ 4] /home/noura/LAMMPS/tests/src_v05/lmp_mpi[0x64b8c1]
[c122:29016] [ 5] /home/noura/LAMMPS/tests/src_v05/lmp_mpi[0x64bb19]
[c122:29016] [ 6] /home/noura/LAMMPS/tests/src_v05/lmp_mpi[0x52f2ad]
[c122:29016] [ 7] /home/noura/LAMMPS/tests/src_v05/lmp_mpi[0x52f342]
[c122:29016] [ 8] /home/noura/LAMMPS/tests/src_v05/lmp_mpi[0x4041be]
[c122:29016] [ 9] /lib/x86_64-linux-gnu/libc.so.6(__libc_start_main+0xf5)[0x7f315cb8cb45]
[c122:29016] [10] /home/noura/LAMMPS/tests/src_v05/lmp_mpi[0x40427f]
[c122:29016] *** End of error message ***
[c122:29017] [ 0] /lib/x86_64-linux-gnu/libpthread.so.0(+0xf8d0)[0x7f8e739b58d0]
[c122:29017] [ 1] /lib/x86_64-linux-gnu/libc.so.6(gsignal+0x37)[0x7f8e73632107]
[c122:29017] [ 2] /lib/x86_64-linux-gnu/libc.so.6(abort+0x148)[0x7f8e736334e8]
[c122:29017] [ 3] /lib/x86_64-linux-gnu/libc.so.6(+0x73204)[0x7f8e73670204]
[c122:29017] [ 4] /lib/x86_64-linux-gnu/libc.so.6(+0x789de)[0x7f8e736759de]
[c122:29017] [ 5] /lib/x86_64-linux-gnu/libc.so.6(+0x796e6)[0x7f8e736766e6]
[c122:29017] [ 6] /home/noura/LAMMPS/tests/src_v05/lmp_mpi[0x5eb753]
[c122:29017] [ 7] /home/noura/LAMMPS/tests/src_v05/lmp_mpi[0x5ebca9]
[c122:29017] [ 8] /home/noura/LAMMPS/tests/src_v05/lmp_mpi[0x64896a]
[c122:29017] [ 9] /home/noura/LAMMPS/tests/src_v05/lmp_mpi[0x64b8c1]
[c122:29017] [10] /home/noura/LAMMPS/tests/src_v05/lmp_mpi[0x64bb19]
[c122:29017] [11] /home/noura/LAMMPS/tests/src_v05/lmp_mpi[0x52f2ad]
[c122:29017] [12] /home/noura/LAMMPS/tests/src_v05/lmp_mpi[0x52f342]
[c122:29017] [13] /home/noura/LAMMPS/tests/src_v05/lmp_mpi[0x4041be]
[c122:29017] [14] /lib/x86_64-linux-gnu/libc.so.6(__libc_start_main+0xf5)[0x7f8e7361eb45]
[c122:29017] [15] /home/noura/LAMMPS/tests/src_v05/lmp_mpi[0x40427f]
[c122:29017] *** End of error message ***
[c122:29018] [ 0] /lib/x86_64-linux-gnu/libpthread.so.0(+0xf8d0)[0x7f08a3f178d0]
[c122:29018] [ 1] /home/noura/LAMMPS/tests/src_v05/lmp_mpi[0x5eb733]
[c122:29018] [ 2] /home/noura/LAMMPS/tests/src_v05/lmp_mpi[0x5ebca9]
[c122:29018] [ 3] /home/noura/LAMMPS/tests/src_v05/lmp_mpi[0x64896a]
[c122:29018] [ 4] /home/noura/LAMMPS/tests/src_v05/lmp_mpi[0x64b8c1]
[c122:29018] [ 5] /home/noura/LAMMPS/tests/src_v05/lmp_mpi[0x64bb19]
[c122:29018] [ 6] /home/noura/LAMMPS/tests/src_v05/lmp_mpi[0x52f2ad]
[c122:29018] [ 7] /home/noura/LAMMPS/tests/src_v05/lmp_mpi[0x52f342]
[c122:29018] [ 8] /home/noura/LAMMPS/tests/src_v05/lmp_mpi[0x4041be]
[c122:29018] [ 9] /lib/x86_64-linux-gnu/libc.so.6(__libc_start_main+0xf5)[0x7f08a3b80b45]
[c122:29018] [10] /home/noura/LAMMPS/tests/src_v05/lmp_mpi[0x40427f]
[c122:29018] *** End of error message ***
[c122:29019] [ 0] /lib/x86_64-linux-gnu/libpthread.so.0(+0xf8d0)[0x7f05ba1fb8d0]
[c122:29019] [ 1] /home/noura/LAMMPS/tests/src_v05/lmp_mpi[0x5eb733]
[c122:29019] [ 2] /home/noura/LAMMPS/tests/src_v05/lmp_mpi[0x5ebca9]
[c122:29019] [ 3] /home/noura/LAMMPS/tests/src_v05/lmp_mpi[0x64896a]
[c122:29019] [ 4] /home/noura/LAMMPS/tests/src_v05/lmp_mpi[0x64b8c1]
[c122:29019] [ 5] /home/noura/LAMMPS/tests/src_v05/lmp_mpi[0x64bb19]
[c122:29019] [ 6] /home/noura/LAMMPS/tests/src_v05/lmp_mpi[0x52f2ad]
[c122:29019] [ 7] /home/noura/LAMMPS/tests/src_v05/lmp_mpi[0x52f342]
[c122:29019] [ 8] /home/noura/LAMMPS/tests/src_v05/lmp_mpi[0x4041be]
[c122:29019] [ 9] /lib/x86_64-linux-gnu/libc.so.6(__libc_start_main+0xf5)[0x7f05b9e64b45]
[c122:29019] [10] /home/noura/LAMMPS/tests/src_v05/lmp_mpi[0x40427f]
[c122:29019] *** End of error message ***
[c122:29022] [ 0] /lib/x86_64-linux-gnu/libpthread.so.0(+0xf8d0)[0x7f3bd772e8d0]
[c122:29022] [ 1] /home/noura/LAMMPS/tests/src_v05/lmp_mpi[0x5eb733]
[c122:29022] [ 2] /home/noura/LAMMPS/tests/src_v05/lmp_mpi[0x5ebca9]
[c122:29022] [ 3] /home/noura/LAMMPS/tests/src_v05/lmp_mpi[0x64896a]
[c122:29022] [ 4] /home/noura/LAMMPS/tests/src_v05/lmp_mpi[0x64b8c1]
[c122:29022] [ 5] /home/noura/LAMMPS/tests/src_v05/lmp_mpi[0x64bb19]
[c122:29022] [ 6] /home/noura/LAMMPS/tests/src_v05/lmp_mpi[0x52f2ad]
[c122:29022] [ 7] /home/noura/LAMMPS/tests/src_v05/lmp_mpi[0x52f342]
[c122:29022] [ 8] /home/noura/LAMMPS/tests/src_v05/lmp_mpi[0x4041be]
[c122:29022] [ 9] /lib/x86_64-linux-gnu/libc.so.6(__libc_start_main+0xf5)[0x7f3bd7397b45]
[c122:29022] [10] /home/noura/LAMMPS/tests/src_v05/lmp_mpi[0x40427f]
[c122:29022] *** End of error message ***
[c122:29023] [ 0] /lib/x86_64-linux-gnu/libpthread.so.0(+0xf8d0)[0x7f19863418d0]
[c122:29023] [ 1] /home/noura/LAMMPS/tests/src_v05/lmp_mpi[0x5eb739]
[c122:29023] [ 2] /home/noura/LAMMPS/tests/src_v05/lmp_mpi[0x5ebca9]
[c122:29023] [ 3] /home/noura/LAMMPS/tests/src_v05/lmp_mpi[0x64896a]
[c122:29023] [ 4] /home/noura/LAMMPS/tests/src_v05/lmp_mpi[0x64b8c1]
[c122:29023] [ 5] /home/noura/LAMMPS/tests/src_v05/lmp_mpi[0x64bb19]
[c122:29023] [ 6] /home/noura/LAMMPS/tests/src_v05/lmp_mpi[0x52f2ad]
[c122:29023] [ 7] /home/noura/LAMMPS/tests/src_v05/lmp_mpi[0x52f342]
[c122:29023] [ 8] /home/noura/LAMMPS/tests/src_v05/lmp_mpi[0x4041be]
[c122:29023] [ 9] /lib/x86_64-linux-gnu/libc.so.6(__libc_start_main+0xf5)[0x7f1985faab45]
[c122:29023] [10] /home/noura/LAMMPS/tests/src_v05/lmp_mpi[0x40427f]
[c122:29023] *** End of error message ***
[c122:29020] [ 0] /lib/x86_64-linux-gnu/libpthread.so.0(+0xf8d0)[0x7f713899d8d0]
[c122:29020] [ 1] /home/noura/LAMMPS/tests/src_v05/lmp_mpi[0x5eb739]
[c122:29020] [ 2] /home/noura/LAMMPS/tests/src_v05/lmp_mpi[0x5ebca9]
[c122:29020] [ 3] /home/noura/LAMMPS/tests/src_v05/lmp_mpi[0x64896a]
[c122:29020] [ 4] /home/noura/LAMMPS/tests/src_v05/lmp_mpi[0x64b8c1]
[c122:29020] [ 5] /home/noura/LAMMPS/tests/src_v05/lmp_mpi[0x64bb19]
[c122:29020] [ 6] /home/noura/LAMMPS/tests/src_v05/lmp_mpi[0x52f2ad]
[c122:29020] [ 7] /home/noura/LAMMPS/tests/src_v05/lmp_mpi[0x52f342]
[c122:29020] [ 8] /home/noura/LAMMPS/tests/src_v05/lmp_mpi[0x4041be]
[c122:29020] [ 9] /lib/x86_64-linux-gnu/libc.so.6(__libc_start_main+0xf5)[0x7f7138606b45]
[c122:29020] [10] /home/noura/LAMMPS/tests/src_v05/lmp_mpi[0x40427f]
[c122:29020] *** End of error message ***
[c122:29024] [ 0] /lib/x86_64-linux-gnu/libpthread.so.0(+0xf8d0)[0x7f672cf068d0]
[c122:29024] [ 1] /home/noura/LAMMPS/tests/src_v05/lmp_mpi[0x5eb733]
[c122:29024] [ 2] /home/noura/LAMMPS/tests/src_v05/lmp_mpi[0x5ebca9]
[c122:29024] [ 3] /home/noura/LAMMPS/tests/src_v05/lmp_mpi[0x64896a]
[c122:29024] [ 4] /home/noura/LAMMPS/tests/src_v05/lmp_mpi[0x64b8c1]
[c122:29024] [ 5] /home/noura/LAMMPS/tests/src_v05/lmp_mpi[0x64bb19]
[c122:29024] [ 6] /home/noura/LAMMPS/tests/src_v05/lmp_mpi[0x52f2ad]
[c122:29024] [ 7] /home/noura/LAMMPS/tests/src_v05/lmp_mpi[0x52f342]
[c122:29024] [ 8] /home/noura/LAMMPS/tests/src_v05/lmp_mpi[0x4041be]
[c122:29024] [ 9] /lib/x86_64-linux-gnu/libc.so.6(__libc_start_main+0xf5)[0x7f672cb6fb45]
[c122:29024] [10] /home/noura/LAMMPS/tests/src_v05/lmp_mpi[0x40427f]
[c122:29024] *** End of error message ***
--------------------------------------------------------------------------
mpirun noticed that process rank 10 with PID 29023 on node c122 exited on signal 11 (Segmentation fault).
--------------------------------------------------------------------------
