ITEM: TIMESTEP
0
ITEM: NUMBER OF ATOMS
3054
ITEM: BOX BOUNDS pp pp pp
4.64509 37.5269
4.64509 37.5269
4.64509 37.5269
ITEM: ATOMS id type xs ys zs
2251 3 0.188974 0.183695 0.12591
2253 4 0.188394 0.209404 0.109675
3033 4 0.242258 0.0662024 0.136522
2566 3 0.0568627 0.192754 0.103952
325 3 0.143915 0.0835565 0.120097
2722 3 0.232163 0.141172 0.0294673
598 3 0.050288 0.11121 0.0599136
327 4 0.129414 0.0568717 0.118517
86 4 0.0610586 0.00574502 0.114046
326 4 0.128646 0.102315 0.138531
2723 4 0.206225 0.147564 0.0149331
1980 4 0.24071 0.242253 0.0196877
2292 4 0.064206 0.180632 0.0165519
1280 4 0.119517 0.000264599 0.0111525
1176 4 0.175406 0.0884213 0.0510948
1780 3 0.0299213 0.0231438 0.010895
1282 3 0.230559 0.0190395 0.0793283
1283 4 0.201167 0.0254884 0.0837303
2973 4 0.134443 0.236528 0.0227505
87 4 0.0391197 0.039891 0.142664
1174 3 0.165135 0.081673 0.0232768
599 4 0.0484657 0.139373 0.0712449
2252 4 0.171 0.16299 0.112753
2567 4 0.0531677 0.22294 0.10401
1175 4 0.187491 0.0689974 0.00701649
2568 4 0.0728342 0.18445 0.128463
600 4 0.0599826 0.0921801 0.0815641
85 3 0.0556344 0.0354673 0.117514
2724 4 0.247126 0.119403 0.0143994
1782 4 0.0506412 0.0215062 0.0330956
1281 4 0.14291 0.0212485 0.0496068
2796 4 0.0853536 0.122658 0.19149
2794 3 0.105205 0.140676 0.177133
2795 4 0.117519 0.160085 0.197046
970 3 0.192595 0.121687 0.211399
1111 3 0.1693 0.237884 0.215704
2749 3 0.0277816 0.0115959 0.206428
971 4 0.187947 0.0920375 0.216313
2750 4 0.0229988 0.0214617 0.234794
972 4 0.200537 0.126027 0.182365
857 4 0.248866 0.15718 0.206715
2667 4 0.195975 0.00839668 0.173636
2665 3 0.224668 0.00999625 0.183586
1112 4 0.149866 0.215666 0.208385
1117 3 0.0671465 0.238619 0.201199
1867 3 0.0142932 0.108933 0.16419
1118 4 0.0384606 0.228738 0.199117
1106 4 0.133821 0.057129 0.231874
2376 4 0.350289 0.168843 0.142003
1727 4 0.480351 0.0846326 0.0479607
178 3 0.469594 0.00749645 0.0471113
118 3 0.305646 0.0764225 0.0553473
1979 4 0.253471 0.200609 0.0435453
2434 3 0.486872 0.223312 0.0589733
2637 4 0.342257 0.18055 0.0104179
120 4 0.326655 0.0739339 0.0771941
1978 3 0.253644 0.230994 0.0448035
119 4 0.280692 0.0610617 0.0634842
480 4 0.409584 0.126642 0.0738586
2675 4 0.413629 0.0454417 0.0103914
478 3 0.419782 0.118362 0.101287
479 4 0.396237 0.114777 0.120198
2571 4 0.420124 0.204421 0.0542679
2569 3 0.390235 0.206862 0.0593181
2636 4 0.318021 0.138102 0.0191913
339 4 0.425766 0.22303 0.13137
2570 4 0.385457 0.224787 0.0834167
860 4 0.453011 0.0500638 0.134302
3032 4 0.253436 0.111527 0.119582
179 4 0.499333 0.00113821 0.0470291
634 3 0.307561 0.0043087 0.139469
1352 4 0.383111 0.0734006 0.213856
2949 4 0.292415 0.0519407 0.234507
2892 4 0.436181 0.14426 0.19091
635 4 0.298225 0.0262701 0.158321
2947 3 0.294241 0.0812413 0.22657
2948 4 0.285012 0.0845384 0.197781
856 3 0.265642 0.178304 0.192672
2890 3 0.463162 0.158219 0.192335
337 3 0.408303 0.235442 0.152953
1351 3 0.395145 0.0998275 0.204821
2557 3 0.381653 0.00621684 0.212302
2891 4 0.481812 0.14639 0.171427
2628 4 0.329159 0.208854 0.216042
2627 4 0.377572 0.207233 0.205094
2375 4 0.311456 0.140488 0.154423
858 4 0.252197 0.18622 0.166568
1353 4 0.372825 0.119327 0.198007
861 4 0.438241 0.0373491 0.17998
2626 3 0.356968 0.20357 0.22716
859 3 0.457901 0.0311608 0.157618
2374 3 0.339954 0.140298 0.143808
3031 3 0.251241 0.0941552 0.144447
2933 4 0.163804 0.486211 0.053597
927 4 0.207933 0.484719 0.111176
1273 3 0.149409 0.284183 0.134827
487 3 0.0432434 0.405717 0.0516764
1274 4 0.144995 0.281096 0.104897
1261 3 0.0771548 0.484177 0.00119603
930 4 0.193142 0.324624 0.0882349
1263 4 0.0660526 0.487335 0.0293319
488 4 0.0681685 0.421436 0.0591933
1186 3 0.136145 0.437869 0.0993775
928 3 0.217778 0.325921 0.0704525
929 4 0.209872 0.319852 0.0417207
1436 4 0.0409891 0.492247 0.093802
1080 4 0.135065 0.332299 0.0402061
1078 3 0.12087 0.348059 0.0620002
1079 4 0.0950126 0.333928 0.0695219
2971 3 0.135792 0.260061 0.0419656
1864 3 0.0492911 0.279758 0.0741331
2972 4 0.107672 0.270189 0.0475802
1866 4 0.0315322 0.263696 0.0553857
1865 4 0.0325407 0.290786 0.0969952
1188 4 0.143563 0.412966 0.0835772
1187 4 0.105969 0.441607 0.0988297
489 4 0.0504505 0.384521 0.0310937
925 3 0.22665 0.474921 0.133052
1502 4 0.227221 0.46441 0.00986148
1113 4 0.173033 0.256356 0.191836
1119 4 0.0684561 0.261901 0.220722
1232 4 0.210437 0.334813 0.213275
515 4 0.144045 0.479444 0.235789
1275 4 0.124908 0.297074 0.147411
507 4 0.041422 0.337403 0.15539
1233 4 0.201585 0.314702 0.168739
1231 3 0.219831 0.314124 0.193062
1677 4 0.0960849 0.449947 0.165831
644 4 0.240712 0.415889 0.219679
643 3 0.248588 0.445164 0.217279
645 4 0.24104 0.455462 0.189678
594 4 0.102976 0.331317 0.225709
592 3 0.133033 0.328437 0.229336
514 3 0.140272 0.4894 0.207303
683 4 0.152985 0.374522 0.2021
505 3 0.0707503 0.342258 0.161804
2744 4 0.045876 0.392108 0.235099
684 4 0.152276 0.409484 0.166838
593 4 0.140444 0.298943 0.22949
2745 4 0.0799423 0.42737 0.227204
506 4 0.0790631 0.369526 0.151211
2743 3 0.072115 0.40393 0.244929
1675 3 0.0683639 0.440845 0.157255
551 4 8.81143e-05 0.317707 0.225098
682 3 0.170168 0.3916 0.183716
1676 4 0.0487969 0.46396 0.160023
2328 4 0.376655 0.353856 0.0238651
2756 4 0.310715 0.295073 0.117713
2706 4 0.465194 0.274166 0.0876333
2755 3 0.310917 0.26478 0.120384
979 3 0.296973 0.364415 0.138367
76 3 0.455868 0.45199 0.113291
2326 3 0.376171 0.325153 0.0339044
1101 4 0.316964 0.357631 0.0328794
481 3 0.491803 0.381414 0.0327643
2546 4 0.335673 0.480809 0.0896498
1100 4 0.272764 0.35664 0.0554989
1099 3 0.292639 0.374176 0.0405872
926 4 0.25491 0.484565 0.127284
2705 4 0.469259 0.315914 0.11422
1501 3 0.257585 0.462965 0.00895132
338 4 0.389711 0.255969 0.140388
77 4 0.446231 0.48042 0.118163
1503 4 0.267517 0.444478 0.0309608
78 4 0.440896 0.440128 0.0896269
482 4 0.465186 0.394966 0.0384837
2639 4 0.461269 0.285974 0.000366657
2704 3 0.450295 0.298596 0.0979309
36 2 0.385739 0.443302 0.0339733
2757 4 0.291537 0.252703 0.100298
2327 4 0.403164 0.318214 0.0460732
981 4 0.291662 0.376762 0.111087
1871 4 0.34137 0.266141 0.00575007
2400 4 0.399104 0.311375 0.209449
2399 4 0.392372 0.35829 0.194619
2131 3 0.471745 0.282763 0.210425
980 4 0.278098 0.376606 0.15886
1467 4 0.441587 0.437026 0.174444
1033 3 0.348182 0.482217 0.220699
3049 5 0.306227 0.294489 0.213174
2398 3 0.378972 0.334057 0.207191
1465 3 0.423428 0.425937 0.196173
1316 4 0.462039 0.359083 0.24472
2132 4 0.462244 0.264204 0.188285
1466 4 0.395054 0.435954 0.191761
1034 4 0.321577 0.467491 0.221117
1547 4 0.219881 0.248154 0.254864
1842 4 0.234811 0.0142723 0.267906
948 4 0.0613094 0.186612 0.259392
946 3 0.0871573 0.179808 0.273899
1840 3 0.215258 0.0355693 0.277339
1964 4 0.179946 0.141304 0.275468
2106 4 0.144027 0.249371 0.27759
1546 3 0.241573 0.246531 0.276117
1107 4 0.156145 0.0649564 0.275538
1105 3 0.133172 0.0734628 0.257518
1331 4 0.16063 0.0204682 0.339516
1332 4 0.143765 0.0559198 0.36993
1330 3 0.136474 0.0303879 0.355103
2105 4 0.119093 0.248446 0.320529
1905 4 0.055696 0.107059 0.306908
1841 4 0.230652 0.0602664 0.286168
2575 3 0.0605079 0.0177538 0.397999
323 4 0.0844868 0.197963 0.371529
301 3 0.020767 0.0214021 0.308
1963 3 0.192099 0.158595 0.297336
827 4 0.0208202 0.232575 0.426457
947 4 0.0835336 0.153939 0.289472
1965 4 0.221549 0.163274 0.291366
1065 4 0.176687 0.201457 0.388512
2576 4 0.0789268 0.0142507 0.421943
322 3 0.114584 0.193611 0.371836
1063 3 0.206558 0.205932 0.38497
303 4 0.019092 0.0124702 0.337022
1064 4 0.215951 0.192042 0.359599
2217 4 0.0643653 0.13443 0.409285
2577 4 0.0765553 0.0279804 0.374276
1904 4 0.0621292 0.0939255 0.354367
1898 4 0.141092 0.127053 0.379773
1903 3 0.0615506 0.117311 0.334934
324 4 0.122915 0.178623 0.34672
1897 3 0.15968 0.10981 0.396568
1899 4 0.162378 0.121895 0.424345
1935 4 0.00916417 0.0391458 0.426979
840 4 0.116105 0.0631274 0.478776
3013 3 0.0952883 0.185849 0.491251
3014 4 0.12567 0.184761 0.490456
838 3 0.146401 0.0628007 0.476146
2823 4 0.247315 0.132663 0.43617
1886 4 0.18482 0.118286 0.498517
1885 3 0.191619 0.147719 0.495011
455 4 0.0342158 0.0429717 0.490044
828 4 0.031142 0.202054 0.464248
1378 3 0.201056 0.237021 0.473195
2216 4 0.077085 0.134243 0.45729
454 3 0.0633271 0.039815 0.498255
817 3 0.238456 0.0425322 0.439219
1379 4 0.209655 0.229168 0.445102
839 4 0.154107 0.0675561 0.447113
1380 4 0.218692 0.22286 0.493525
819 4 0.243558 0.0598046 0.463724
818 4 0.233319 0.0138499 0.447925
826 3 0.0241837 0.20349 0.434678
2215 3 0.070626 0.116779 0.433245
1553 4 0.426144 0.0849236 0.262224
1554 4 0.436298 0.0392613 0.2789
1552 3 0.448082 0.0665684 0.272551
2846 4 0.295134 0.129253 0.26133
2046 4 0.417793 0.188338 0.276162
2845 3 0.285516 0.149996 0.281382
2847 4 0.296753 0.177259 0.273943
122 4 0.44185 0.0723629 0.385217
415 3 0.362696 0.0652234 0.312617
2856 4 0.414233 0.236176 0.397482
417 4 0.365465 0.0448324 0.335009
690 4 0.298753 0.238258 0.322732
123 4 0.461638 0.0502064 0.425014
689 4 0.346159 0.240657 0.308134
121 3 0.467848 0.0646863 0.399002
1268 4 0.271606 0.105491 0.334953
1267 3 0.273554 0.0827559 0.355057
1269 4 0.255932 0.0889152 0.379065
1140 4 0.32737 0.131879 0.392866
2044 3 0.426634 0.163485 0.291296
2045 4 0.402228 0.146951 0.298769
877 3 0.339241 0.00765161 0.388634
1139 4 0.354134 0.119609 0.352873
1343 4 0.471165 0.163016 0.411381
878 4 0.315077 0.0256301 0.384422
1138 3 0.350737 0.140002 0.375178
416 4 0.336397 0.060738 0.298018
2854 3 0.419303 0.206489 0.40171
879 4 0.356877 0.0193282 0.410486
1344 4 0.499412 0.122368 0.415395
2855 4 0.403202 0.190474 0.381483
1342 3 0.498898 0.152636 0.418309
2821 3 0.277346 0.13658 0.438932
2822 4 0.283805 0.166288 0.438191
546 4 0.400703 0.242138 0.494595
1549 3 0.409492 0.126669 0.471703
1551 4 0.384148 0.113864 0.460813
957 4 0.496561 0.227772 0.434039
545 4 0.397224 0.192834 0.489764
1550 4 0.430357 0.105133 0.476775
1819 3 0.335046 0.0602051 0.464699
2372 4 0.41292 0.0134518 0.472522
1820 4 0.335795 0.041698 0.488819
1821 4 0.306364 0.0630584 0.454999
2371 3 0.418621 0.00361806 0.444315
1451 4 0.175981 0.370806 0.274074
281 4 0.0161433 0.458067 0.26981
550 3 0.0139757 0.318958 0.252125
280 3 0.0106738 0.487983 0.269812
552 4 0.00353452 0.342842 0.26779
1452 4 0.18199 0.419436 0.282149
1450 3 0.19471 0.391989 0.285269
2981 4 0.0842032 0.432648 0.301295
2104 3 0.131083 0.26646 0.299161
1548 4 0.232753 0.261948 0.300802
2179 3 0.0227422 0.255046 0.337579
1860 4 0.024888 0.432263 0.425044
2363 4 0.0013739 0.424851 0.318187
842 4 0.12625 0.266231 0.391766
1040 4 0.150702 0.499042 0.313508
841 3 0.129426 0.291191 0.408848
1858 3 0.0243624 0.403005 0.416763
2980 3 0.0831699 0.447114 0.328025
692 4 0.192895 0.305737 0.340701
474 4 0.0828523 0.359111 0.294493
2180 4 0.00343483 0.262157 0.359974
2181 4 0.0104484 0.262612 0.310812
1565 4 0.242168 0.485304 0.359159
2381 4 0.0292323 0.479826 0.357674
473 4 0.103644 0.319109 0.315321
8 1 0.0836307 0.351872 0.401508
693 4 0.21742 0.272089 0.367767
299 4 0.162504 0.430518 0.386387
300 4 0.123213 0.446504 0.412211
958 3 0.22927 0.403526 0.375445
472 3 0.0936305 0.347373 0.320395
298 3 0.137419 0.421935 0.401284
1039 3 0.1655 0.486365 0.290159
960 4 0.222743 0.407367 0.345992
691 3 0.220131 0.297691 0.351579
2982 4 0.0810649 0.426738 0.350503
2380 3 0.000484309 0.479869 0.367594
2586 4 0.0112984 0.303842 0.425665
3037 5 0.19005 0.345207 0.431237
2584 3 0.0328512 0.305241 0.447075
942 4 0.176319 0.474029 0.472271
2583 4 0.0714617 0.476463 0.464324
2763 4 0.150319 0.264572 0.498279
172 3 0.0945173 0.360969 0.482087
174 4 0.0648648 0.3634 0.488387
173 4 0.109077 0.385704 0.49214
843 4 0.117796 0.286108 0.436484
2581 3 0.0674826 0.484657 0.435309
940 3 0.193158 0.498728 0.466682
2585 4 0.0206844 0.315311 0.473063
2057 4 0.265236 0.466235 0.27776
674 4 0.423946 0.461671 0.259462
1157 4 0.268586 0.381984 0.281746
279 4 0.421492 0.283788 0.269944
1315 3 0.457312 0.368414 0.273276
1156 3 0.283842 0.358261 0.270376
1317 4 0.433683 0.387548 0.273908
199 3 0.314462 0.335538 0.361778
2056 3 0.274126 0.459898 0.306144
195 4 0.436097 0.460009 0.356421
675 4 0.396227 0.478845 0.296918
201 4 0.284926 0.331343 0.355873
688 3 0.323819 0.255477 0.322491
3035 4 0.374103 0.430134 0.360668
277 3 0.428456 0.263415 0.291422
1791 4 0.401818 0.348528 0.353025
1790 4 0.424624 0.306037 0.341165
1622 4 0.322514 0.355744 0.427451
3036 4 0.349666 0.393439 0.337808
2272 3 0.298129 0.451446 0.418941
1789 3 0.413078 0.322491 0.363987
200 4 0.33062 0.31311 0.349097
193 3 0.460875 0.453967 0.372986
194 4 0.478193 0.43373 0.35831
959 4 0.256588 0.415481 0.381417
3034 3 0.372998 0.412829 0.335685
2058 4 0.303937 0.465257 0.308865
2273 4 0.316545 0.428497 0.426625
1941 4 0.397613 0.305418 0.421236
673 3 0.424651 0.473939 0.28728
278 4 0.45658 0.252872 0.286655
1158 4 0.281097 0.3345 0.289157
2126 4 0.47556 0.363761 0.433288
956 4 0.458149 0.25848 0.44095
2241 4 0.295162 0.259555 0.455977
2127 4 0.45512 0.408741 0.438312
626 4 0.499782 0.451585 0.498149
2240 4 0.262013 0.296061 0.461872
992 4 0.380465 0.440877 0.474401
1939 3 0.384089 0.294993 0.446401
2239 3 0.284008 0.285152 0.443925
2274 4 0.293135 0.469012 0.443259
1623 4 0.339191 0.367008 0.472852
625 3 0.493837 0.480318 0.490149
1621 3 0.336495 0.376911 0.444225
991 3 0.401805 0.46234 0.477366
1616 4 0.449644 0.313194 0.499327
2125 3 0.46337 0.383433 0.453019
955 3 0.487646 0.256846 0.43373
1940 4 0.354572 0.290249 0.440822
1887 4 0.210115 0.156594 0.517461
475 3 0.0223477 0.129324 0.521656
477 4 0.0372445 0.103079 0.517894
3015 4 0.0863865 0.213019 0.501616
456 4 0.0651798 0.0208047 0.52192
476 4 0.0421231 0.152413 0.520828
1302 4 0.246547 0.0982085 0.557935
1740 4 0.111671 0.13466 0.543825
1300 3 0.241314 0.0753451 0.538577
407 4 0.151189 0.00792015 0.539538
2712 4 0.0803936 0.0805285 0.606317
1855 3 0.0884848 0.154565 0.687072
3053 6 0.218365 0.150266 0.617864
2702 4 0.170559 0.191366 0.620444
1856 4 0.095992 0.178459 0.669822
2701 3 0.149316 0.208668 0.633642
2703 4 0.160613 0.236431 0.638787
117 4 0.229262 0.228864 0.656301
1862 4 0.208659 0.0194938 0.658766
115 3 0.24003 0.221972 0.683895
3054 6 0.228258 0.149315 0.60476
1857 4 0.108043 0.131841 0.681979
1718 4 0.0110221 0.188307 0.657256
138 4 0.175022 0.110733 0.6487
2588 4 0.0667025 0.0161537 0.640347
2710 3 0.0622905 0.0767063 0.630453
2840 4 0.00286019 0.00499743 0.668166
2848 3 0.0709492 0.24736 0.594452
137 4 0.185219 0.109394 0.697285
2850 4 0.088453 0.222523 0.593191
136 3 0.164298 0.103126 0.676122
2040 4 0.244746 0.104554 0.657683
1861 3 0.196582 0.00237317 0.680809
2711 4 0.0518455 0.103739 0.639671
1739 4 0.148339 0.128123 0.576673
1738 3 0.118593 0.124357 0.571588
1698 4 0.151892 0.198729 0.747745
2488 3 0.245657 0.147582 0.73411
2531 4 0.0459527 0.169892 0.74802
2489 4 0.246965 0.170868 0.714594
966 4 0.202831 0.0531741 0.731035
532 3 0.0701556 0.058683 0.739448
533 4 0.0475081 0.0734075 0.725479
2535 4 0.104559 0.00463244 0.728727
1516 3 0.0732461 0.246155 0.71882
534 4 0.0965897 0.06588 0.726246
2752 3 0.325555 0.019088 0.548038
258 4 0.275024 0.233851 0.547124
2548 3 0.319234 0.124416 0.535383
257 4 0.290003 0.189321 0.531031
256 3 0.275624 0.214975 0.523287
1159 3 0.43885 0.045429 0.519909
544 3 0.398472 0.215809 0.509651
1160 4 0.469232 0.0441527 0.519458
2550 4 0.346232 0.112554 0.542818
1161 4 0.429478 0.0541209 0.547503
2549 4 0.308564 0.110534 0.510517
1152 4 0.450035 0.153503 0.516301
1151 4 0.49948 0.153731 0.511681
1301 4 0.255515 0.050306 0.548387
1150 3 0.476237 0.160321 0.530152
212 4 0.477728 0.0231243 0.680765
2039 4 0.269962 0.0873168 0.69684
191 4 0.324572 0.153273 0.702482
234 4 0.443546 0.154885 0.655452
1895 4 0.426909 0.140023 0.576298
211 3 0.483596 0.0449177 0.701148
89 4 0.424596 0.230527 0.575654
2542 3 0.31639 0.168113 0.636867
2038 3 0.261318 0.0813684 0.668296
870 4 0.2879 0.0171189 0.675606
685 3 0.404307 0.237848 0.694719
2543 4 0.314689 0.198418 0.634975
2346 4 0.38252 0.0607133 0.649087
2344 3 0.360845 0.0652324 0.62824
1894 3 0.400029 0.13627 0.590017
2544 4 0.289216 0.15602 0.630525
116 4 0.258577 0.244135 0.693364
2345 4 0.363801 0.0930959 0.616418
233 4 0.468991 0.120926 0.681251
232 3 0.471329 0.145589 0.663611
1896 4 0.383142 0.161278 0.58624
88 3 0.44163 0.23996 0.599014
686 4 0.416685 0.239162 0.666971
2192 4 0.489638 0.0973509 0.608159
157 3 0.406921 0.0914195 0.709249
2754 4 0.328726 0.0347477 0.573915
159 4 0.401672 0.112897 0.73013
1328 4 0.468076 0.21091 0.722802
1968 4 0.355452 0.0426334 0.733112
192 4 0.361288 0.183265 0.717271
1327 3 0.487503 0.20412 0.745193
190 3 0.339069 0.164731 0.726636
158 4 0.430265 0.0740922 0.718176
2898 4 0.205932 0.413394 0.511629
2762 4 0.122435 0.301179 0.516953
853 3 0.0083904 0.36544 0.517491
854 4 0.0186657 0.393505 0.523114
1891 3 0.247142 0.320137 0.537357
1893 4 0.239509 0.348795 0.544089
2896 3 0.18164 0.396586 0.504401
2897 4 0.156483 0.410114 0.514842
2761 3 0.122404 0.272244 0.507592
25 2 0.0950015 0.460782 0.528443
2849 4 0.076385 0.264837 0.570165
951 4 0.182327 0.449161 0.619148
874 3 0.0241076 0.308745 0.669955
876 4 0.0144633 0.298013 0.643185
2951 4 0.116777 0.307168 0.599566
950 4 0.19021 0.452948 0.668034
2952 4 0.109284 0.356145 0.596198
949 3 0.182269 0.43407 0.645552
2950 3 0.116459 0.330998 0.580674
2427 4 0.0856585 0.34385 0.684068
875 4 0.0224482 0.339111 0.669895
15 1 0.0364524 0.49569 0.594896
1476 4 0.0849868 0.430958 0.630699
2425 3 0.105427 0.364555 0.694333
1475 4 0.104484 0.462098 0.664112
1517 4 0.0577945 0.259001 0.695993
582 4 0.173248 0.329406 0.668452
1474 3 0.0813926 0.457647 0.644829
580 3 0.18817 0.311144 0.649251
581 4 0.204819 0.327956 0.630145
1734 4 0.128712 0.45456 0.743106
1732 3 0.152564 0.470153 0.732487
1418 4 0.194692 0.271416 0.745903
2572 3 0.206877 0.393622 0.744336
1733 4 0.177782 0.453433 0.735547
1641 4 0.00201708 0.375234 0.742344
1417 3 0.164478 0.273337 0.748781
2573 4 0.218653 0.389428 0.716613
1518 4 0.102872 0.252281 0.715719
2426 4 0.0960184 0.375071 0.721272
837 4 0.316789 0.351666 0.546994
1687 3 0.459006 0.428541 0.561655
836 4 0.364595 0.360907 0.556767
1892 4 0.253911 0.305171 0.56295
1615 3 0.463616 0.306555 0.525511
627 4 0.481322 0.495002 0.513657
1054 3 0.262957 0.449031 0.534172
993 4 0.42026 0.455165 0.500448
1056 4 0.29076 0.442883 0.523492
835 3 0.342072 0.365127 0.536773
1617 4 0.443864 0.309165 0.548486
1055 4 0.251497 0.473014 0.519396
2877 4 0.331481 0.281781 0.598877
2875 3 0.305534 0.27057 0.610099
242 4 0.370659 0.464733 0.597606
2876 4 0.295576 0.288554 0.63251
2904 4 0.490849 0.279865 0.669538
1689 4 0.452842 0.453805 0.577421
243 4 0.370444 0.416811 0.584578
1434 4 0.480429 0.37523 0.672278
241 3 0.355886 0.4383 0.600426
527 4 0.405496 0.397654 0.686361
1487 4 0.436168 0.485736 0.653191
2358 4 0.298782 0.392052 0.611021
572 4 0.355776 0.34464 0.682381
1486 3 0.465033 0.479061 0.646326
3024 4 0.359005 0.478118 0.70468
2356 3 0.271771 0.378827 0.606511
687 4 0.385857 0.261688 0.698727
526 3 0.405037 0.413658 0.712217
1432 3 0.487627 0.382851 0.700826
2357 4 0.250603 0.400228 0.60218
21 2 0.417529 0.341818 0.618154
1688 4 0.456254 0.40432 0.579839
573 4 0.319656 0.378573 0.68556
90 4 0.445909 0.269999 0.596961
571 3 0.326861 0.349442 0.690488
528 4 0.399427 0.442883 0.70595
1433 4 0.469482 0.405392 0.710182
1555 3 0.300195 0.444801 0.729957
1557 4 0.278632 0.466189 0.731538
1632 4 0.274292 0.316771 0.730279
1919 4 0.0755686 0.23188 0.803983
1696 3 0.160225 0.177003 0.767326
2530 3 0.0369284 0.146523 0.765262
1918 3 0.0946113 0.21363 0.819122
1697 4 0.175574 0.155337 0.752498
564 4 0.203054 0.133523 0.842506
163 3 0.118065 0.0581053 0.811294
1920 4 0.113711 0.200394 0.799504
2532 4 0.0578452 0.124473 0.764202
164 4 0.0941152 0.0590205 0.792574
2283 4 0.0241646 0.202023 0.835461
1051 3 0.0320969 0.099548 0.849196
60 4 0.199019 0.23845 0.798141
165 4 0.14369 0.0605167 0.795095
965 4 0.219032 0.0298073 0.77175
1052 4 0.048922 0.124504 0.853552
563 4 0.174769 0.174168 0.846271
59 4 0.243697 0.243001 0.81934
58 3 0.213868 0.240311 0.824616
964 3 0.215423 0.0569227 0.758462
3012 4 0.22272 0.0195796 0.949734
1681 3 0.172081 0.194649 0.952508
1682 4 0.161216 0.202698 0.925268
3010 3 0.23331 0.037712 0.971732
2291 4 0.0669934 0.195733 0.969324
2053 3 0.148032 0.0222724 0.894076
498 4 0.0274045 0.116182 0.974807
2027 4 0.233266 0.20026 0.882705
2698 3 0.091774 0.155989 0.896097
695 4 0.247294 0.0943024 0.875595
2054 4 0.136893 0.0357404 0.918963
2699 4 0.108656 0.161082 0.87132
1389 4 0.0851242 0.103458 0.932419
562 3 0.184959 0.14956 0.860951
1683 4 0.149692 0.182602 0.969195
2700 4 0.0823582 0.182529 0.907578
2055 4 0.142627 0.0397733 0.869799
2028 4 0.235988 0.204966 0.932068
1781 4 0.0366317 0.0463818 0.992461
1388 4 0.119653 0.0889249 0.96502
1387 3 0.0952764 0.0801426 0.949098
1042 3 0.0507434 0.00312804 0.865571
2290 3 0.0828062 0.184686 0.992836
1053 4 0.0144874 0.0948195 0.873535
1044 4 0.063224 0.0302665 0.859861
185 4 0.40469 0.183192 0.821847
2490 4 0.250659 0.157724 0.762341
986 4 0.453597 0.0900075 0.790708
985 3 0.46081 0.0606283 0.793822
741 4 0.458747 0.245548 0.781114
2601 4 0.301103 0.197746 0.824319
1966 3 0.344545 0.0248286 0.755223
987 4 0.490461 0.0580789 0.800084
184 3 0.425324 0.16178 0.815473
3040 5 0.320056 0.100958 0.790547
2599 3 0.290507 0.169512 0.828251
2481 4 0.252053 0.0128772 0.830268
186 4 0.448448 0.174232 0.80014
2089 3 0.380014 0.0591058 0.856897
2600 4 0.277764 0.167209 0.855767
1998 4 0.474454 0.116775 0.881603
1126 3 0.41762 0.211649 0.898318
2091 4 0.370712 0.0876996 0.86145
2676 4 0.40738 0.0923539 0.995343
1589 4 0.347928 0.0460404 0.957308
696 4 0.269183 0.0532924 0.893069
2674 3 0.395699 0.0642841 0.994632
1128 4 0.439324 0.232766 0.901121
1997 4 0.447399 0.106877 0.922055
2090 4 0.409449 0.0567428 0.864168
1588 3 0.321799 0.0346903 0.946661
2324 4 0.488358 0.0312815 0.923818
1404 4 0.31374 0.247001 0.905663
2323 3 0.493167 0.00165646 0.91891
1996 3 0.460151 0.0949142 0.897172
2729 4 0.335495 0.130999 0.93081
694 3 0.259 0.0672671 0.868051
1590 4 0.316312 0.00782447 0.959813
1743 4 0.382612 0.00770038 0.950504
1127 4 0.422979 0.194829 0.873554
2640 4 0.46645 0.243236 0.975611
1872 4 0.320159 0.227784 0.982405
2026 3 0.251623 0.206814 0.906049
1103 4 0.419646 0.170691 0.963032
2730 4 0.326555 0.0917091 0.901782
3011 4 0.262778 0.0434252 0.96685
2728 3 0.327911 0.122075 0.902744
1102 3 0.432865 0.151881 0.982939
1104 4 0.456086 0.166122 0.996462
2635 3 0.328982 0.156416 0.997528
1449 4 0.0436899 0.28151 0.768584
1419 4 0.157425 0.297676 0.765595
2574 4 0.215657 0.370957 0.762614
1448 4 0.0223668 0.31099 0.802385
746 4 0.234286 0.296429 0.856279
663 4 0.109121 0.480699 0.81275
453 4 0.136536 0.329976 0.842042
452 4 0.131705 0.361373 0.803869
451 3 0.148055 0.338356 0.815173
1423 3 0.20426 0.443443 0.827754
1447 3 0.0359968 0.284178 0.797885
29 2 0.0714537 0.409029 0.787089
1425 4 0.196039 0.462376 0.80542
1424 4 0.222854 0.457915 0.846981
745 3 0.235563 0.326809 0.856763
747 4 0.212838 0.338178 0.840055
700 3 0.0703581 0.355298 0.901253
3001 3 0.0327456 0.340859 0.989
133 3 0.227834 0.483554 0.916734
1166 4 0.248992 0.382665 0.90223
2183 4 0.0179098 0.253924 0.928562
1772 4 0.164925 0.309358 0.958605
701 4 0.083919 0.382478 0.902752
750 4 0.0117658 0.457936 0.992738
1512 4 0.169124 0.264733 0.867458
1773 4 0.121371 0.329747 0.946212
2184 4 0.0560261 0.277077 0.906714
1510 3 0.142595 0.273001 0.879817
2485 3 0.132887 0.499464 0.929918
437 4 0.0315719 0.455493 0.882208
3002 4 0.0354163 0.312361 0.999275
1479 4 0.176643 0.3761 0.89349
438 4 0.0716299 0.439188 0.8578
1771 3 0.138535 0.319993 0.969344
2486 4 0.113114 0.476821 0.925313
919 3 0.240535 0.296563 0.964402
219 4 0.170903 0.413841 0.966721
436 3 0.0619764 0.455538 0.881556
2182 3 0.0473221 0.251759 0.921141
920 4 0.243297 0.299176 0.934229
1511 4 0.119739 0.261228 0.863574
1477 3 0.161705 0.402489 0.895794
1478 4 0.171624 0.421656 0.874367
1167 4 0.242682 0.425901 0.925834
3003 4 0.0476577 0.343568 0.962634
702 4 0.0593877 0.350975 0.873221
135 4 0.197837 0.48789 0.919226
217 3 0.171288 0.4059 0.996075
218 4 0.163197 0.37671 0.998786
1239 4 0.266072 0.482118 0.807404
739 3 0.446474 0.257394 0.806291
2517 4 0.2924 0.374775 0.810771
2721 4 0.324092 0.263979 0.830749
718 3 0.388249 0.344905 0.782763
1238 4 0.300442 0.462899 0.837663
1237 3 0.289873 0.488551 0.825207
1631 4 0.289754 0.290151 0.769247
548 4 0.479981 0.374248 0.78142
444 4 0.452694 0.474097 0.818462
1630 3 0.265708 0.297408 0.752102
442 3 0.47768 0.463253 0.804936
720 4 0.406885 0.349455 0.806361
443 4 0.491083 0.442949 0.823182
2515 3 0.308915 0.39358 0.828048
2719 3 0.3313 0.262209 0.801257
2720 4 0.35377 0.281762 0.795122
740 4 0.432739 0.283659 0.799482
719 4 0.392178 0.367078 0.762323
1556 4 0.311938 0.440181 0.757627
547 3 0.48528 0.348605 0.796888
2516 4 0.316077 0.379706 0.854145
486 4 0.48165 0.453939 0.91999
1597 3 0.380873 0.429225 0.92304
1165 3 0.261168 0.402015 0.922285
261 4 0.491155 0.353839 0.970848
1402 3 0.324762 0.270338 0.889577
2899 3 0.423447 0.338705 0.875629
485 4 0.480214 0.481273 0.878553
484 3 0.473135 0.480613 0.908122
2638 3 0.44917 0.26803 0.979001
2979 4 0.491371 0.257107 0.866151
388 3 0.337779 0.348044 0.952097
2900 4 0.442148 0.358864 0.888619
2901 4 0.439821 0.316882 0.862193
1870 3 0.319678 0.25797 0.986063
390 4 0.322329 0.325696 0.965764
1598 4 0.388289 0.409317 0.901279
1599 4 0.405728 0.436585 0.938943
6 1 0.318712 0.426221 0.970874
1403 4 0.34362 0.286645 0.906992
389 4 0.363638 0.336922 0.940589
921 4 0.267035 0.287508 0.97626
260 4 0.497761 0.31138 0.945952
1426 3 0.0294443 0.619036 0.0605174
1750 3 0.108886 0.580897 0.0862025
1752 4 0.0838481 0.598056 0.0843203
1945 3 0.0475046 0.748569 0.0690296
1751 4 0.101104 0.551505 0.0855548
910 3 0.197238 0.641669 0.0718465
703 3 0.119961 0.7005 0.00879131
1815 4 0.126749 0.62808 0.0108696
2476 3 0.158644 0.744136 0.0955697
2932 3 0.175179 0.511712 0.041549
705 4 0.130598 0.708464 0.0361466
912 4 0.191835 0.660072 0.0954479
911 4 0.179239 0.617228 0.0737221
510 4 0.218577 0.732485 0.0156578
508 3 0.229585 0.724874 0.0429664
1435 3 0.0366995 0.512731 0.0717377
1437 4 0.0168965 0.533795 0.0811723
2934 4 0.19536 0.523881 0.0607721
509 4 0.222714 0.695857 0.0489376
1947 4 0.032064 0.726314 0.0552027
2478 4 0.183508 0.738905 0.0788588
1427 4 0.0409158 0.624991 0.0329892
1428 4 0.000864893 0.609045 0.0576447
1814 4 0.146477 0.582506 0.011166
2034 4 0.0291436 0.626581 0.130316
1608 4 0.0474706 0.739006 0.137001
2195 4 0.136304 0.618054 0.138134
113 4 0.143254 0.704633 0.213343
2033 4 0.00882006 0.647852 0.170326
112 3 0.134557 0.726244 0.193793
95 4 0.12114 0.611553 0.225001
1767 4 0.247046 0.583084 0.185912
114 4 0.158691 0.735987 0.17806
2524 3 0.222471 0.675479 0.211761
2525 4 0.235925 0.675734 0.239034
2526 4 0.211403 0.647709 0.206178
1766 4 0.209188 0.603497 0.161087
1765 3 0.239205 0.598618 0.160971
516 4 0.159624 0.512229 0.201897
2196 4 0.138725 0.660915 0.1631
2194 3 0.149935 0.632722 0.161023
244 3 0.0566676 0.67879 0.248803
1607 4 0.0771954 0.732771 0.176293
2280 4 0.0728053 0.562701 0.194975
246 4 0.0420444 0.677942 0.222151
1606 3 0.0483369 0.735973 0.167249
2279 4 0.0904696 0.516289 0.194593
2278 3 0.0694069 0.534936 0.183039
2032 3 0.0335222 0.633769 0.15954
975 4 0.00880744 0.55604 0.203463
756 4 0.287481 0.540166 0.0866204
1498 3 0.459657 0.679592 0.0900827
2049 4 0.416645 0.653709 0.00847668
1618 3 0.390717 0.735525 0.0580404
2687 4 0.387288 0.548382 0.128267
2145 4 0.493963 0.579724 0.0450648
1500 4 0.444793 0.699686 0.0727578
2496 4 0.425542 0.545493 0.0607021
447 4 0.311456 0.712749 0.00396826
1081 3 0.353451 0.610629 0.104862
2495 4 0.43701 0.507177 0.0312639
1083 4 0.33989 0.63633 0.0958935
1082 4 0.369459 0.599018 0.0817585
1942 3 0.286122 0.640996 0.0340513
1619 4 0.364785 0.72508 0.0700105
1499 4 0.459623 0.652431 0.0764036
1506 4 0.283843 0.710921 0.0968331
2047 3 0.42621 0.628496 0.0225359
754 3 0.260339 0.55385 0.085641
2494 3 0.447511 0.53272 0.0439976
239 4 0.354257 0.546687 0.00212201
1944 4 0.257544 0.630747 0.0322849
755 4 0.256892 0.571305 0.110304
1504 3 0.310578 0.712508 0.111241
240 4 0.367489 0.593292 0.0130368
1505 4 0.306333 0.723406 0.139313
2048 4 0.442431 0.611605 0.00313421
238 3 0.347904 0.570908 0.0193801
2545 3 0.330099 0.505285 0.106817
1943 4 0.305424 0.617568 0.0322014
2547 4 0.347639 0.504459 0.131647
2686 3 0.411533 0.53473 0.140542
2970 4 0.431523 0.724959 0.135043
2968 3 0.413494 0.723314 0.159479
557 4 0.464178 0.617793 0.20311
3028 3 0.320313 0.65206 0.199653
220 3 0.450191 0.543053 0.23558
558 4 0.441215 0.65573 0.180755
3030 4 0.347668 0.645373 0.18817
2969 4 0.390854 0.703742 0.154072
3029 4 0.298711 0.643432 0.180064
881 4 0.254566 0.731328 0.193819
405 4 0.357868 0.588959 0.234921
556 3 0.450235 0.626854 0.177647
1035 4 0.348538 0.503135 0.242771
222 4 0.428464 0.561893 0.245471
63 4 0.493372 0.529965 0.164866
1907 4 0.404923 0.741793 0.237977
221 4 0.441764 0.514284 0.240698
2688 4 0.429155 0.555544 0.154
2540 4 0.215994 0.930345 0.0221875
1279 3 0.129228 0.995979 0.0396516
1946 4 0.0631466 0.76443 0.0483271
2477 4 0.142351 0.766415 0.0827999
2961 4 0.0664606 0.89866 0.132721
1796 4 0.247578 0.803914 0.0388604
75 4 0.0445703 0.931055 0.00653095
2959 3 0.0617803 0.927639 0.124773
1309 3 0.0119408 0.853023 0.0704857
377 4 0.108811 0.827897 0.0558482
82 3 0.145191 0.973119 0.135022
1642 3 0.16018 0.872284 0.0725861
376 3 0.101369 0.808275 0.033838
1643 4 0.18346 0.862537 0.0556186
73 3 0.0614066 0.916934 0.027555
1311 4 0.0312192 0.845102 0.0926319
2664 4 0.107273 0.832501 0.139035
1644 4 0.170866 0.886882 0.0970313
1795 3 0.238126 0.826134 0.0203727
378 4 0.121257 0.810687 0.0109576
1310 4 0.026414 0.870459 0.0502034
2662 3 0.0776901 0.834765 0.132356
84 4 0.141458 0.97342 0.104842
2960 4 0.071969 0.932162 0.0964779
74 4 0.0906756 0.924223 0.0236739
1284 4 0.233368 0.990078 0.0704856
816 4 0.200644 0.845396 0.137911
2751 4 0.0527252 0.994209 0.205813
1953 4 0.14339 0.979016 0.207391
1952 4 0.115942 0.944255 0.229854
2474 4 0.0108932 0.928913 0.172499
83 4 0.120429 0.961348 0.148181
815 4 0.185057 0.829356 0.182251