LAMMPS data file via write_data, version 10 Oct 2018, timestep = 0

2400 atoms
2 atom types
1600 bonds
1 bond types
800 angles
1 angle types

3.0335497369065001e+00 3.1991544616191600e+01 xlo xhi
2.9795497369064998e+00 3.1937544616191602e+01 ylo yhi
3.0260487369064801e+00 3.1984043616191599e+01 zlo zhi

Masses

1 1.00794
2 15.9994

Atoms # full

844 1 2 -8.4760000000000002e-01 6.3760123876950212e+00 6.4364919320326583e+00 6.7994533763322131e+00 0 2 1
846 2 1 4.2380000000000001e-01 7.1507932399835239e+00 6.5750093595221077e+00 6.1825842674436595e+00 0 2 1
845 2 1 4.2380000000000001e-01 5.6713445720734432e+00 5.9006127671099691e+00 6.3343976859502478e+00 0 2 1
1846 1 2 -8.4760000000000002e-01 4.3590867177824286e+00 8.6620773331547660e+00 3.3215244651863172e+00 1 1 1
1848 2 1 4.2380000000000001e-01 4.1844634735418582e+00 9.3531324824373012e+00 4.0229155641222603e+00 1 1 1
1847 2 1 4.2380000000000001e-01 3.7166531772466227e+00 7.9039359630312802e+00 3.4333314457982653e+00 1 1 1
1767 2 1 4.2380000000000001e-01 5.6271378934292198e+00 6.4373579685167703e+00 1.0255241990723968e+01 1 1 0
1528 1 2 -8.4760000000000002e-01 6.9184489534041553e+00 7.3365947280868173e+00 9.1813451590189068e+00 1 3 2
1529 2 1 4.2380000000000001e-01 6.6165900056466223e+00 6.7808454643859832e+00 8.4067330514485263e+00 1 3 2
1558 1 2 -8.4760000000000002e-01 9.0237782211639583e+00 8.7670143075208404e+00 8.1566536983950311e+00 1 1 0
1530 2 1 4.2380000000000001e-01 7.7993543657791715e+00 7.7580515381023725e+00 8.9659854566055319e+00 1 3 2
1559 2 1 4.2380000000000001e-01 8.6161790332210799e+00 9.5613860353832667e+00 7.7062800596333769e+00 1 1 0
789 2 1 4.2380000000000001e-01 3.2868253308878090e+00 5.6280374057837879e+00 6.0494770997561922e+00 0 1 1
1832 2 1 4.2380000000000001e-01 4.4353736426753958e+00 3.7385980483439072e+00 6.3762620260326859e+00 -1 -2 -2
1765 1 2 -8.4760000000000002e-01 4.7977244498579861e+00 6.1977204880251566e+00 1.0759867695610259e+01 1 1 0
1831 1 2 -8.4760000000000002e-01 4.6075856895740852e+00 4.4642362983693626e+00 5.7100847765116507e+00 -1 -2 -2
1833 2 1 4.2380000000000001e-01 5.0518850482434274e+00 4.0766283990605841e+00 4.9023978425990196e+00 -1 -2 -2
1766 2 1 4.2380000000000001e-01 5.0068412182508979e+00 5.4786889220810897e+00 1.1422637452857948e+01 1 1 0
1478 2 1 4.2380000000000001e-01 7.8827835117116223e+00 4.5495483249372910e+00 7.2309010484094971e+00 1 1 0
2386 1 2 -8.4760000000000002e-01 5.7916727335561955e+00 9.7792128708663615e+00 9.3086102198300118e+00 -2 2 -2
1481 2 1 4.2380000000000001e-01 8.5064473773419742e+00 6.3585740512924867e+00 3.5865133470424415e+00 2 -1 2
1447 1 2 -8.4760000000000002e-01 5.7034240973801928e+00 3.2680098840535390e+00 3.6995766178451595e+00 0 2 0
1480 1 2 -8.4760000000000002e-01 9.3890814615562643e+00 6.7206898030549942e+00 3.8862286139030990e+00 2 -1 2
1477 1 2 -8.4760000000000002e-01 7.7367395401862460e+00 3.6855501329606648e+00 7.7127498603256157e+00 1 1 0
1560 2 1 4.2380000000000001e-01 9.2356911252649798e+00 8.9949531371076787e+00 9.1069888033179200e+00 1 1 0
700 1 2 -8.4760000000000002e-01 5.2993134968967626e+00 3.0347493757073103e+00 8.6194137377949982e+00 1 1 0
1479 2 1 4.2380000000000001e-01 6.8133752060883293e+00 3.6697818063849161e+00 8.0963507706021751e+00 1 1 0
1909 1 2 -8.4760000000000002e-01 7.9442449320957005e+00 3.2226008506979151e+00 1.1408982335294938e+01 0 1 0
2388 2 1 4.2380000000000001e-01 6.2490235007438182e+00 8.9375502176999913e+00 9.5957237567212985e+00 -2 2 -2
1911 2 1 4.2380000000000001e-01 7.5544644912307426e+00 4.0580352696190811e+00 1.1796436245346992e+01 0 1 0
283 1 2 -8.4760000000000002e-01 5.1143711269473471e+00 4.0975060190446895e+00 1.2375468243383414e+01 0 0 0
1643 2 1 4.2380000000000001e-01 9.7322341223552122e+00 8.6993520427945530e+00 1.0958499342731209e+01 -2 1 -1
94 1 2 -8.4760000000000002e-01 9.9024970709891047e+00 9.6902312027162409e+00 4.0545045983344838e+00 0 0 0
96 2 1 4.2380000000000001e-01 9.7224039663344968e+00 8.7163393441876913e+00 4.1927110808932664e+00 0 0 0
702 2 1 4.2380000000000001e-01 4.7023907773097404e+00 3.4115201009796547e+00 9.3277406955333220e+00 1 1 0
1642 1 2 -8.4760000000000002e-01 9.2234300586797229e+00 9.5171406525561490e+00 1.0689537979655935e+01 -2 1 -1
1614 2 1 4.2380000000000001e-01 3.5326664271464563e+00 7.0644782067711667e+00 9.5185469238357925e+00 3 1 1
1746 2 1 4.2380000000000001e-01 6.4125976090791523e+00 9.2114676777831157e+00 1.2595566968735291e+01 0 -1 0
1744 1 2 -8.4760000000000002e-01 7.1532479534463960e+00 9.8823403140039279e+00 1.2558594381808673e+01 0 -1 0
172 1 2 -8.4760000000000002e-01 9.6123109068883110e+00 4.7229365106334695e+00 9.7420284019657437e+00 -2 0 0
344 2 1 4.2380000000000001e-01 4.7648435739617918e+00 7.6783098825543963e+00 1.2098409516036517e+01 1 0 1
284 2 1 4.2380000000000001e-01 4.7018681710893091e+00 3.3342521534464815e+00 1.1878190807220149e+01 0 0 0
174 2 1 4.2380000000000001e-01 9.4285864243487829e+00 4.1538631274054643e+00 1.0543527496813844e+01 -2 0 0
173 2 1 4.2380000000000001e-01 8.8507605417219324e+00 4.6478504010770587e+00 9.0982869434692866e+00 -2 0 0
1482 2 1 4.2380000000000001e-01 9.9480799706403236e+00 5.9763078667231744e+00 4.2514904258116433e+00 2 -1 2
1745 2 1 4.2380000000000001e-01 7.8067470079863197e+00 9.6186048600948055e+00 1.1849099789133481e+01 0 -1 0
799 1 2 -8.4760000000000002e-01 1.6958213023293556e+01 5.2069116028869944e+00 1.2361667661569728e+01 0 0 0
1131 2 1 4.2380000000000001e-01 1.7385353327269609e+01 5.9689155530929314e+00 6.1213903329121182e+00 -1 0 0
2261 2 1 4.2380000000000001e-01 1.2550790331919153e+01 4.1154002413066104e+00 3.2814865697978917e+00 3 1 1
462 2 1 4.2380000000000001e-01 1.0430596627008013e+01 7.0958533692286156e+00 1.2602844124306962e+01 -1 0 -1
381 2 1 4.2380000000000001e-01 1.2025402682055958e+01 9.1950057594071204e+00 3.1702989001738509e+00 0 1 2
80 2 1 4.2380000000000001e-01 1.5687406316596077e+01 4.3015718842442725e+00 8.1868258565563448e+00 -1 0 0
79 1 2 -8.4760000000000002e-01 1.4869185219276044e+01 4.1080258971471126e+00 7.6454810770873207e+00 -1 0 0
1130 2 1 4.2380000000000001e-01 1.7250200897431409e+01 5.8737388416890015e+00 4.4967975821741826e+00 -1 0 0
95 2 1 4.2380000000000001e-01 1.0502561105164309e+01 1.0024642504990002e+01 4.7812041233017029e+00 0 0 0
685 1 2 -8.4760000000000002e-01 1.6024015742866737e+01 6.6068853149247113e+00 3.4424542801983256e+00 1 1 2
956 2 1 4.2380000000000001e-01 1.2155439215400310e+01 9.5049686393844439e+00 6.6594277592022957e+00 0 0 1
630 2 1 4.2380000000000001e-01 1.0681878153778550e+01 7.4921396478783882e+00 8.1867331281439224e+00 -1 1 1
629 2 1 4.2380000000000001e-01 1.0532715811275196e+01 6.2006025429834475e+00 9.1748166194526117e+00 -1 1 1
628 1 2 -8.4760000000000002e-01 1.1140126925992881e+01 6.9393477426642995e+00 8.8827425587565951e+00 -1 1 1
1906 1 2 -8.4760000000000002e-01 1.1852719371507639e+01 6.4804152152012735e+00 1.1887595960857221e+01 2 1 0
81 2 1 4.2380000000000001e-01 1.4059235709968927e+01 4.4188444184522417e+00 8.1428477481510324e+00 -1 0 0
2011 1 2 -8.4760000000000002e-01 1.4199582766821287e+01 6.3768525008377503e+00 5.7519455948863696e+00 0 -2 -1
594 2 1 4.2380000000000001e-01 1.3902411830430232e+01 7.5817148958845912e+00 6.9684699973906685e+00 0 0 2
592 1 2 -8.4760000000000002e-01 1.3532847777322905e+01 8.1335102281561245e+00 7.7160957509439871e+00 0 0 2
593 2 1 4.2380000000000001e-01 1.2874399338149825e+01 7.5904911639150328e+00 8.2372251915576005e+00 0 0 2
29 2 1 4.2380000000000001e-01 1.5070493264589707e+01 5.3199008027823611e+00 1.1640127355846454e+01 1 1 0
2013 2 1 4.2380000000000001e-01 1.4793005171555752e+01 6.5878950135898267e+00 4.9752146897142842e+00 0 -2 -1
28 1 2 -8.4760000000000002e-01 1.4223684581684427e+01 5.0348714104816210e+00 1.1191046901799295e+01 1 1 0
2253 2 1 4.2380000000000001e-01 1.4834300086567010e+01 8.5860875087111452e+00 8.6833585221346947e+00 0 -1 -1
2012 2 1 4.2380000000000001e-01 1.4644185390470868e+01 5.6979794504850467e+00 6.3362912688317721e+00 0 -2 -1
1908 2 1 4.2380000000000001e-01 1.2705705435797382e+01 6.3792361657535528e+00 1.1375563182611092e+01 2 1 0
1661 2 1 4.2380000000000001e-01 1.3051788909513263e+01 4.2780007733674186e+00 9.9986515562880172e+00 0 1 1
1660 1 2 -8.4760000000000002e-01 1.2602259432144232e+01 3.9963074324391892e+00 9.1509652461663986e+00 0 1 1
293 2 1 4.2380000000000001e-01 1.5859646214488400e+01 9.8912382148097073e+00 3.6757450850975806e+00 2 2 2
1662 2 1 4.2380000000000001e-01 1.1781405561757996e+01 4.5495735846101217e+00 9.0092069014585690e+00 0 1 1
483 2 1 4.2380000000000001e-01 1.2806131129248010e+01 5.8073821307028366e+00 4.9761232389263341e+00 1 0 -1
1518 2 1 4.2380000000000001e-01 1.4681490896850146e+01 1.0168867465861195e+01 7.1877006083213981e+00 1 2 -1
1233 2 1 4.2380000000000001e-01 1.7381255231443262e+01 4.9737544791366437e+00 1.0684481502428602e+01 0 1 0
2202 2 1 4.2380000000000001e-01 1.7018608971520866e+01 5.9223724578456665e+00 8.5138835196271145e+00 -1 2 0
233 2 1 4.2380000000000001e-01 1.2924978464449630e+01 3.1442141082038408e+00 6.9046511520482783e+00 0 0 -1
984 2 1 4.2380000000000001e-01 1.6925120752157774e+01 3.2345542603559494e+00 1.1778220970939406e+01 2 1 0
686 2 1 4.2380000000000001e-01 1.5827020152829368e+01 7.5780710332487118e+00 3.5765849237904423e+00 1 1 2
1231 1 2 -8.4760000000000002e-01 1.7226680396191487e+01 4.8946299042589967e+00 9.6996739600583979e+00 0 1 0
482 2 1 4.2380000000000001e-01 1.2068513552638581e+01 4.3962316458994026e+00 5.3383401613792349e+00 1 0 -1
1517 2 1 4.2380000000000001e-01 1.5415529858474535e+01 9.8167424915967061e+00 5.7721366569650669e+00 1 2 -1
2252 2 1 4.2380000000000001e-01 1.5115394725890644e+01 9.8938846148702506e+00 9.6199902187796802e+00 0 -1 -1
2251 1 2 -8.4760000000000002e-01 1.5543551508277872e+01 9.1630120013920102e+00 9.0884764220318441e+00 0 -1 -1
2201 2 1 4.2380000000000001e-01 1.6806353711297810e+01 7.4308772525479005e+00 7.9256765219070902e+00 -1 2 0
242 2 1 4.2380000000000001e-01 1.7399269138825645e+01 9.2536098351568814e+00 9.0348752182627230e+00 0 1 1
292 1 2 -8.4760000000000002e-01 1.5299054784331384e+01 9.1078859806928545e+00 3.9442529423884385e+00 2 2 2
2200 1 2 -8.4760000000000002e-01 1.6893037741453536e+01 6.4646244687691832e+00 7.6831039953058964e+00 -1 2 0
30 2 1 4.2380000000000001e-01 1.3756605859543996e+01 4.3575675614377607e+00 1.1759463066849968e+01 1 1 0
481 1 2 -8.4760000000000002e-01 1.2033093157708180e+01 5.2110698454093063e+00 4.7597348556938890e+00 1 0 -1
294 2 1 4.2380000000000001e-01 1.4428442751258071e+01 9.1370931784048608e+00 3.4531504828777577e+00 2 2 2
1907 2 1 4.2380000000000001e-01 1.1364972452066127e+01 5.6074984766299441e+00 1.1898518699325704e+01 2 1 0
580 1 2 -8.4760000000000002e-01 7.6896636572089827e+00 1.1428421637863540e+01 4.6037604070860345e+00 2 0 0
1462 1 2 -8.4760000000000002e-01 7.6451165192108430e+00 1.0891870888923449e+01 7.4823276705187292e+00 2 0 1
1463 2 1 4.2380000000000001e-01 6.7444165627320158e+00 1.0750233296301920e+01 7.8930323756613960e+00 2 0 1
2387 2 1 4.2380000000000001e-01 5.6165162749383502e+00 1.0352977885394791e+01 1.0108681404963832e+01 -2 2 -2
406 1 2 -8.4760000000000002e-01 5.4642669641332535e+00 1.4262154639651550e+01 1.0604369710732374e+01 -2 0 0
581 2 1 4.2380000000000001e-01 8.3900378721966238e+00 1.0741472814494573e+01 4.4099118409421960e+00 2 0 0
582 2 1 4.2380000000000001e-01 7.3907107747099197e+00 1.1340692075570015e+01 5.5539870603903543e+00 2 0 0
1705 1 2 -8.4760000000000002e-01 4.3243934628641263e+00 1.5598055022415439e+01 4.1479753687010632e+00 0 0 1
1962 2 1 4.2380000000000001e-01 4.2586467743007494e+00 1.0946531865665122e+01 9.2578767952382179e+00 0 0 0
2219 2 1 4.2380000000000001e-01 4.3107777853746247e+00 1.5024388265633217e+01 1.1310547622652013e+01 1 0 -2
1884 2 1 4.2380000000000001e-01 5.6367650802982787e+00 1.6522171871833425e+01 7.2128642300157031e+00 -1 2 0
2354 2 1 4.2380000000000001e-01 4.7457435886019894e+00 1.3325270161875125e+01 6.0202388782285157e+00 1 1 0
1300 1 2 -8.4760000000000002e-01 8.2872575566980604e+00 1.6131564242483687e+01 9.9821780841457901e+00 -1 -1 2
1302 2 1 4.2380000000000001e-01 8.9160252933382331e+00 1.6813868787702106e+01 9.6092014293708470e+00 -1 -1 2
408 2 1 4.2380000000000001e-01 5.4974052888382321e+00 1.3386773929412776e+01 1.1086666730234851e+01 -2 0 0
1464 2 1 4.2380000000000001e-01 8.1858112899247129e+00 1.1498051204502461e+01 8.0655896550426647e+00 2 0 1
1960 1 2 -8.4760000000000002e-01 3.3802497046589899e+00 1.1222342498529757e+01 8.8675602471609078e+00 0 0 0
527 2 1 4.2380000000000001e-01 5.6397293888055193e+00 1.6617197442536970e+01 5.0137027173504523e+00 -2 -1 -1
1706 2 1 4.2380000000000001e-01 4.8521972218275398e+00 1.5874079631948366e+01 3.3447110242491198e+00 0 0 1
2353 1 2 -8.4760000000000002e-01 4.0568334475629193e+00 1.2982676435814385e+01 6.6590129774386870e+00 1 1 0
2288 2 1 4.2380000000000001e-01 3.2375046637702170e+00 1.1630282908412914e+01 5.7336972059030220e+00 2 -1 0
2157 2 1 4.2380000000000001e-01 6.3034370202908097e+00 1.1161839569128519e+01 1.1911111179801310e+01 0 -1 -1
171 2 1 4.2380000000000001e-01 6.9852350327130743e+00 1.3097377890886985e+01 4.7899020419546172e+00 0 0 -2
169 1 2 -8.4760000000000002e-01 6.4470824628054570e+00 1.3748648636569776e+01 5.3249143387263373e+00 0 0 -2
170 2 1 4.2380000000000001e-01 6.1120355132859254e+00 1.4475794789231506e+01 4.7257466014155147e+00 0 0 -2
1882 1 2 -8.4760000000000002e-01 5.1106295054335398e+00 1.6234054298978453e+01 8.0129702317949523e+00 -1 2 0
423 2 1 4.2380000000000001e-01 7.8453142764231174e+00 1.3292868826725226e+01 8.4133508155077905e+00 1 -2 -2
164 2 1 4.2380000000000001e-01 9.9660830734398456e+00 1.2639564790878143e+01 8.3426955417988982e+00 0 0 1
165 2 1 4.2380000000000001e-01 9.5578145310393783e+00 1.2705903154466119e+01 9.9224241553000816e+00 0 0 1
163 1 2 -8.4760000000000002e-01 9.2429769396789005e+00 1.2452698740359580e+01 9.0076756653763432e+00 0 0 1
421 1 2 -8.4760000000000002e-01 7.1742011252486151e+00 1.4021142921857678e+01 8.2747004321848028e+00 1 -2 -2
589 1 2 -8.4760000000000002e-01 8.4694547207666417e+00 1.4567788032768355e+01 1.2242446746774323e+01 0 -2 0
1883 2 1 4.2380000000000001e-01 5.7326681664257846e+00 1.6063308166027131e+01 8.7771126678645768e+00 -1 2 0
590 2 1 4.2380000000000001e-01 8.3027248023722677e+00 1.4977362281008809e+01 1.1345535348209269e+01 0 -2 0
2355 2 1 4.2380000000000001e-01 3.5396860305011448e+00 1.3751389943569801e+01 7.0353613160172843e+00 1 1 0
422 2 1 4.2380000000000001e-01 6.8516234024522884e+00 1.4001393700930878e+01 7.3283635177779001e+00 1 -2 -2
1395 2 1 4.2380000000000001e-01 9.2219368168016587e+00 1.7402587163126938e+01 6.7553988469932067e+00 2 1 2
2155 1 2 -8.4760000000000002e-01 5.5963937867536409e+00 1.1689278957989403e+01 1.1440051207658431e+01 0 -1 -1
1301 2 1 4.2380000000000001e-01 8.0627408349642486e+00 1.5462610555273811e+01 9.2735927483824732e+00 -1 -1 2
2218 1 2 -8.4760000000000002e-01 3.5781265664582711e+00 1.5505734358170454e+01 1.1791721322925921e+01 1 0 -2
2156 2 1 4.2380000000000001e-01 4.8357602709619334e+00 1.1860772881542950e+01 1.2066171379850791e+01 0 -1 -1
407 2 1 4.2380000000000001e-01 5.8312062423716453e+00 1.4148147970111173e+01 9.6811373220163759e+00 -2 0 0
1707 2 1 4.2380000000000001e-01 3.3750941600453892e+00 1.5430898462191319e+01 3.8817245154304691e+00 0 0 1
2289 2 1 4.2380000000000001e-01 3.3589708343986096e+00 1.1392107047677227e+01 4.1227519495592437e+00 2 -1 0
1721 2 1 4.2380000000000001e-01 3.3807039371603755e+00 1.5598215252603916e+01 7.4784755924426358e+00 0 1 -3
1319 2 1 4.2380000000000001e-01 9.5615062062157605e+00 1.3163016555450714e+01 1.1996105816651694e+01 3 3 1
1644 2 1 4.2380000000000001e-01 9.7415178582680984e+00 1.0332276798052039e+01 1.0948648185064314e+01 -2 1 -1
526 1 2 -8.4760000000000002e-01 6.1158242015999811e+00 1.7273814851935441e+01 5.5986704805685203e+00 -2 -1 -1
1961 2 1 4.2380000000000001e-01 3.5348213032002245e+00 1.1881047549606714e+01 8.1312075671145845e+00 0 0 0
2287 1 2 -8.4760000000000002e-01 3.0366683215968635e+00 1.0999533850172408e+01 4.9841504296062888e+00 2 -1 0
631 1 2 -8.4760000000000002e-01 1.6880169522733819e+01 1.2202234962033828e+01 1.0557290202910128e+01 0 0 1
288 2 1 4.2380000000000001e-01 1.3233933039124395e+01 1.3332819763761357e+01 3.3501725369030719e+00 0 1 1
566 2 1 4.2380000000000001e-01 1.7155869457224494e+01 1.6933684033179880e+01 1.0373685778218501e+01 2 0 0
1594 1 2 -8.4760000000000002e-01 1.2299436579062437e+01 1.7008517707419436e+01 3.2596751188750397e+00 -1 1 -1
567 2 1 4.2380000000000001e-01 1.6564416703397711e+01 1.5551849682471131e+01 9.7354507500269776e+00 2 0 0
2184 2 1 4.2380000000000001e-01 1.6542616630043522e+01 1.5077393432874985e+01 1.1607817100452200e+01 0 1 0
2399 2 1 4.2380000000000001e-01 1.1045294990825241e+01 1.7030056373784042e+01 8.0184376880835888e+00 0 -1 2
1320 2 1 4.2380000000000001e-01 1.1192078809226842e+01 1.3092842005181177e+01 1.2050281430308566e+01 3 3 1
957 2 1 4.2380000000000001e-01 1.2696422001947299e+01 1.0766053345604616e+01 5.7741992686874815e+00 0 0 1
2182 1 2 -8.4760000000000002e-01 1.5903963114471930e+01 1.4395335572297864e+01 1.1964073688289739e+01 0 1 0
955 1 2 -8.4760000000000002e-01 1.1882580803982595e+01 1.0267840423082355e+01 6.0732751350408538e+00 0 0 1
565 1 2 -8.4760000000000002e-01 1.7284648636996177e+01 1.5944217616018852e+01 1.0307563778939521e+01 2 0 0
2138 2 1 4.2380000000000001e-01 1.2650861965848218e+01 1.4309677239801923e+01 9.6749511329088378e+00 0 0 1
1400 2 1 4.2380000000000001e-01 1.5266990029387767e+01 1.5689392173608104e+01 4.4717062071448099e+00 1 2 0
1519 1 2 -8.4760000000000002e-01 1.4702488641243846e+01 1.7427856121734568e+01 6.9589708054643129e+00 1 0 0
2370 2 1 4.2380000000000001e-01 1.3803086029372563e+01 1.1109572370230888e+01 1.1205309443263950e+01 3 -1 1
2183 2 1 4.2380000000000001e-01 1.6062463710429149e+01 1.3519818107974254e+01 1.1507623562584959e+01 0 1 0
857 2 1 4.2380000000000001e-01 1.1442810060691716e+01 1.5063519388738985e+01 4.6457179784818301e+00 1 0 -1
1339 1 2 -8.4760000000000002e-01 1.7093032140511720e+01 1.0945108027801428e+01 3.1628506435242785e+00 -2 0 -2
1340 2 1 4.2380000000000001e-01 1.7458520527632533e+01 1.1788234865315795e+01 3.5572557045655224e+00 -2 0 -2
858 2 1 4.2380000000000001e-01 1.2802471648784927e+01 1.5469211911789216e+01 5.4540250928805074e+00 1 0 -1
633 2 1 4.2380000000000001e-01 1.6033018639848439e+01 1.1702330484697455e+01 1.0377204448435606e+01 0 0 1
2398 1 2 -8.4760000000000002e-01 1.0386116241208953e+01 1.6552701688610171e+01 7.4373905375873655e+00 0 -1 2
2400 2 1 4.2380000000000001e-01 1.0872445916170452e+01 1.5934418576416402e+01 6.8199689354519348e+00 0 -1 2
65 2 1 4.2380000000000001e-01 1.4318859076001271e+01 1.5705710610038992e+01 1.1627201002783602e+01 -2 0 0
66 2 1 4.2380000000000001e-01 1.3129614660294711e+01 1.6809606823260857e+01 1.1810878260335372e+01 -2 0 0
1749 2 1 4.2380000000000001e-01 1.3465353721782629e+01 1.1206338349037971e+01 3.6888693000179900e+00 1 1 3
1633 1 2 -8.4760000000000002e-01 1.5394239300573323e+01 1.5091801666187239e+01 8.3629208244786213e+00 1 0 1
856 1 2 -8.4760000000000002e-01 1.1832305822029671e+01 1.5245935190571497e+01 5.5485011869985037e+00 1 0 -1
1401 2 1 4.2380000000000001e-01 1.3797441647248764e+01 1.6178242309768297e+01 3.9539422038057723e+00 1 2 0
77 2 1 4.2380000000000001e-01 1.1261037501687465e+01 1.2096945299237479e+01 6.6138928213737724e+00 0 0 0
1634 2 1 4.2380000000000001e-01 1.4916144234011972e+01 1.5759067974840049e+01 7.7917984433361998e+00 1 0 1
1318 1 2 -8.4760000000000002e-01 1.0365291136650594e+01 1.2632272850314576e+01 1.1727329134059689e+01 3 3 1
76 1 2 -8.4760000000000002e-01 1.1025559379213069e+01 1.2961696357501763e+01 7.0574643082320669e+00 0 0 0
2139 2 1 4.2380000000000001e-01 1.2411023290732853e+01 1.3168698240066767e+01 8.5315916916606156e+00 0 0 1
1299 2 1 4.2380000000000001e-01 1.7265450712408072e+01 1.5870279459423024e+01 4.9515575437755146e+00 -1 -1 0
1472 2 1 4.2380000000000001e-01 1.6738242792192807e+01 1.4847263384454561e+01 6.9492970467151194e+00 0 1 1
1516 1 2 -8.4760000000000002e-01 1.4961467179952539e+01 1.0534478748435591e+01 6.3000398220148597e+00 1 2 -1
1748 2 1 4.2380000000000001e-01 1.4289812203677196e+01 1.1524020661037850e+01 5.0621764027095431e+00 1 1 3
1747 1 2 -8.4760000000000002e-01 1.3754422461727346e+01 1.1926472348381656e+01 4.3196197332209438e+00 1 1 3
1297 1 2 -8.4760000000000002e-01 1.7002972795808940e+01 1.5981766827250961e+01 3.9930817180911498e+00 -1 -1 0
2369 2 1 4.2380000000000001e-01 1.3902827644756963e+01 1.2054546701938584e+01 9.8772651657317798e+00 3 -1 1
2368 1 2 -8.4760000000000002e-01 1.4281792244751241e+01 1.1252592873723021e+01 1.0339061517178060e+01 3 -1 1
1520 2 1 4.2380000000000001e-01 1.4455977582361928e+01 1.6898276307832703e+01 6.1473197182734589e+00 1 0 0
78 2 1 4.2380000000000001e-01 1.1461879455816122e+01 1.3716885816873056e+01 6.5682673702283134e+00 0 0 0
64 1 2 -8.4760000000000002e-01 1.3792769932381949e+01 1.6422832937493624e+01 1.1170073266364602e+01 -2 0 0
1399 1 2 -8.4760000000000002e-01 1.4354017078244976e+01 1.5977903308813238e+01 4.7602225922420400e+00 1 2 0
2137 1 2 -8.4760000000000002e-01 1.3066874634321350e+01 1.3541784736473772e+01 9.1878427740472794e+00 0 0 1
1635 2 1 4.2380000000000001e-01 1.4729011998880015e+01 1.4472083730816683e+01 8.7793608665336702e+00 1 0 1
1091 2 1 4.2380000000000001e-01 7.7301098211542332e+00 4.9003016149158141e+00 1.7868260885917177e+01 -2 -1 1
1327 1 2 -8.4760000000000002e-01 4.9665688610903151e+00 4.8081731635700979e+00 1.8793276177863010e+01 1 3 2
2309 2 1 4.2380000000000001e-01 4.0105683495138127e+00 5.5381139623007583e+00 1.4792970144217300e+01 -2 0 -1
235 1 2 -8.4760000000000002e-01 6.4628896358898107e+00 7.9967329794911866e+00 1.9984487485440336e+01 1 0 2
237 2 1 4.2380000000000001e-01 5.7229007289711396e+00 7.6779691854573953e+00 1.9392198653275276e+01 1 0 2
1329 2 1 4.2380000000000001e-01 5.7122517024156245e+00 5.4082376508808112e+00 1.8503656233688073e+01 1 3 2
2296 1 2 -8.4760000000000002e-01 5.7770401319999065e+00 4.0043426651699923e+00 2.1670996850818106e+01 1 -1 0
802 1 2 -8.4760000000000002e-01 6.1331913567295109e+00 7.4409373595915378e+00 1.6099097000380819e+01 -1 1 -2
804 2 1 4.2380000000000001e-01 6.3936824783770954e+00 6.6947563391680873e+00 1.6711761854668634e+01 -1 1 -2
803 2 1 4.2380000000000001e-01 6.8934055388170998e+00 8.0853630536355503e+00 1.6016696255612313e+01 -1 1 -2
1158 2 1 4.2380000000000001e-01 1.0125543145638474e+01 8.3643664038164154e+00 1.4411845834979022e+01 -1 -2 -1
1328 2 1 4.2380000000000001e-01 5.0319789352357356e+00 4.6466940164470749e+00 1.9777982221275526e+01 1 3 2
2034 2 1 4.2380000000000001e-01 7.0402408366999891e+00 6.9876385145888760e+00 2.1308621070930023e+01 0 1 2
1090 1 2 -8.4760000000000002e-01 7.2970304523383716e+00 5.7921982825148746e+00 1.7998501400167200e+01 -2 -1 1
85 1 2 -8.4760000000000002e-01 1.0210949235020019e+01 5.0793444861635537e+00 2.1813421874195864e+01 0 0 -2
2223 2 1 4.2380000000000001e-01 8.2284344954028583e+00 7.6016638351761046e+00 1.9582749640532278e+01 0 0 0
113 2 1 4.2380000000000001e-01 8.7818341103854145e+00 9.1607697031612467e+00 1.5614128897357807e+01 0 2 0
112 1 2 -8.4760000000000002e-01 7.7989988102346883e+00 9.3451466363014699e+00 1.5607813191369592e+01 0 2 0
114 2 1 4.2380000000000001e-01 7.5179497964705364e+00 9.6233128295495458e+00 1.4689317137863961e+01 0 2 0
1920 2 1 4.2380000000000001e-01 8.4775659622097503e+00 4.0767868301512564e+00 2.1439251493780954e+01 2 2 1
236 2 1 4.2380000000000001e-01 6.2732884025608238e+00 8.9329927664247020e+00 2.0280239020811990e+01 1 0 2
1092 2 1 4.2380000000000001e-01 7.8128830057247747e+00 6.3175843647470513e+00 1.8675159006630263e+01 -2 -1 1
2221 1 2 -8.4760000000000002e-01 9.1796987232685066e+00 7.2945425150580361e+00 1.9554950868248266e+01 0 0 0
2308 1 2 -8.4760000000000002e-01 3.9807151138882491e+00 6.5374248021369983e+00 1.4815029632699661e+01 -2 0 -1
1657 1 2 -8.4760000000000002e-01 7.4382437974625795e+00 6.3031793930109092e+00 1.3081371939433208e+01 -1 -1 2
1348 1 2 -8.4760000000000002e-01 4.4611066266108237e+00 3.7455314637808503e+00 1.5360991623492664e+01 0 -1 0
1918 1 2 -8.4760000000000002e-01 8.2313893262300759e+00 3.1097612990515251e+00 2.1373993304409108e+01 2 2 1
2310 2 1 4.2380000000000001e-01 4.7029445585055143e+00 6.8792707995001674e+00 1.5416299903190609e+01 -2 0 -1
41 2 1 4.2380000000000001e-01 7.8998536813221012e+00 4.0070395631043301e+00 1.5762831209120774e+01 0 -1 -1
2033 2 1 4.2380000000000001e-01 6.5300228737839774e+00 5.5557177578175381e+00 2.1905200510593716e+01 0 1 2
1659 2 1 4.2380000000000001e-01 7.4969146089996324e+00 5.7803883488888879e+00 1.3931811352311721e+01 -1 -1 2
40 1 2 -8.4760000000000002e-01 7.7605216540792314e+00 3.8308594810929257e+00 1.4788384104029420e+01 0 -1 -1
455 2 1 4.2380000000000001e-01 6.2372430020123648e+00 1.0152071087056971e+01 1.7288941388836214e+01 0 1 -2
2298 2 1 4.2380000000000001e-01 6.6712353923314396e+00 3.5573558019585367e+00 2.1646145732893046e+01 1 -1 0
345 2 1 4.2380000000000001e-01 4.7645103076992834e+00 7.7319244021886417e+00 1.3730509960810405e+01 1 0 1
2392 1 2 -8.4760000000000002e-01 3.6913206840589430e+00 8.2612771099482156e+00 1.9393511145344444e+01 -1 0 -1
2032 1 2 -8.4760000000000002e-01 7.1890368569420602e+00 6.2992588708203412e+00 2.2018545851807684e+01 0 1 2
1186 1 2 -8.4760000000000002e-01 1.0271896463657811e+01 3.6786510719826957e+00 1.3248446301662057e+01 -1 -1 -1
1349 2 1 4.2380000000000001e-01 5.2464874775975403e+00 3.3754556915197047e+00 1.5857198066791716e+01 0 -1 0
2222 2 1 4.2380000000000001e-01 9.5223539155437873e+00 7.1861197143483082e+00 2.0488134585933778e+01 0 0 0
1188 2 1 4.2380000000000001e-01 9.2929291430756855e+00 3.6013614107529657e+00 1.3059636154871765e+01 -1 -1 -1
785 2 1 4.2380000000000001e-01 3.7399265368030363e+00 4.2249457921261904e+00 1.8106506853563197e+01 0 1 0
461 2 1 4.2380000000000001e-01 8.8477297368840357e+00 7.1994674211047007e+00 1.2990688125862025e+01 -1 0 -1
460 1 2 -8.4760000000000002e-01 9.7262731738142172e+00 7.6767001630457035e+00 1.3010943930453720e+01 -1 0 -1
1198 1 2 -8.4760000000000002e-01 8.5676774103527897e+00 3.3304030272719869e+00 1.7508575995361461e+01 0 0 0
1658 2 1 4.2380000000000001e-01 6.5798062651257778e+00 6.8157958065230257e+00 1.3063784915953175e+01 -1 -1 2
343 1 2 -8.4760000000000002e-01 5.1705270002325125e+00 8.1155432017785589e+00 1.2901060106711006e+01 1 0 1
1199 2 1 4.2380000000000001e-01 9.4182408614851010e+00 3.1537302786429113e+00 1.8003882472667730e+01 0 0 0
2393 2 1 4.2380000000000001e-01 3.9934808575951197e+00 8.6072760752578130e+00 2.0281758806039083e+01 -1 0 -1
2394 2 1 4.2380000000000001e-01 3.4646938665100024e+00 9.0302919160766155e+00 1.8795801770560679e+01 -1 0 -1
285 2 1 4.2380000000000001e-01 5.1736331484843241e+00 3.8690598170589592e+00 1.3347219417898458e+01 0 0 0
2297 2 1 4.2380000000000001e-01 5.0929315212910637e+00 3.3622402604755393e+00 2.2016973414683601e+01 1 -1 0
1350 2 1 4.2380000000000001e-01 4.0751596087602042e+00 3.0362301695735048e+00 1.4771130140970600e+01 0 -1 0
1157 2 1 4.2380000000000001e-01 1.1160060161948870e+01 9.3545209497348552e+00 1.5196699326053460e+01 -1 -2 -1
1156 1 2 -8.4760000000000002e-01 1.0478218810380614e+01 8.6316322944766632e+00 1.5308611588700366e+01 -1 -2 -1
966 2 1 4.2380000000000001e-01 1.4783828125226140e+01 3.4423869482702818e+00 2.2235607109199538e+01 -1 1 -1
99 2 1 4.2380000000000001e-01 1.5778409176676416e+01 9.2478755024030868e+00 2.1845684927772798e+01 1 -1 -1
612 2 1 4.2380000000000001e-01 1.2144610751552813e+01 7.6096972113195056e+00 2.0210149765855743e+01 0 1 1
636 2 1 4.2380000000000001e-01 1.2567611476137918e+01 7.6015682485739777e+00 1.3360865991273792e+01 0 0 1
1987 1 2 -8.4760000000000002e-01 1.1275440677618404e+01 7.2749363837518395e+00 1.7528562922503060e+01 0 0 -1
1989 2 1 4.2380000000000001e-01 1.0930288352588770e+01 7.7765173868706583e+00 1.6735287202891250e+01 0 0 -1
1187 2 1 4.2380000000000001e-01 1.0416945393477835e+01 4.3259799151674780e+00 1.3996728445601839e+01 -1 -1 -1
1988 2 1 4.2380000000000001e-01 1.0733197937506640e+01 7.5120976520190537e+00 1.8334619572550974e+01 0 0 -1
1107 2 1 4.2380000000000001e-01 1.5279228183005856e+01 8.7836632532724526e+00 1.2885987194957458e+01 1 0 0
986 2 1 4.2380000000000001e-01 1.5960630092930259e+01 8.5626862126460797e+00 1.9580878509375950e+01 -1 0 0
2079 2 1 4.2380000000000001e-01 1.0977752709129314e+01 5.7100368784609481e+00 1.6278474699420617e+01 1 0 2
2078 2 1 4.2380000000000001e-01 1.1528347088421544e+01 4.1738312344230151e+00 1.6218939141277282e+01 1 0 2
198 2 1 4.2380000000000001e-01 1.3106009590082518e+01 5.7352276501686514e+00 1.5894176436931842e+01 1 2 1
2077 1 2 -8.4760000000000002e-01 1.1080249126218851e+01 4.9012918415674598e+00 1.5699315030621719e+01 1 0 2
635 2 1 4.2380000000000001e-01 1.3499873747102866e+01 7.7553949609570756e+00 1.4692725922973198e+01 0 0 1
691 1 2 -8.4760000000000002e-01 1.4494184327056987e+01 5.3244443337729894e+00 1.8823844361327073e+01 1 2 -1
1978 1 2 -8.4760000000000002e-01 1.3048664206747109e+01 9.9303984476853238e+00 1.6934022900366418e+01 -2 -2 0
1980 2 1 4.2380000000000001e-01 1.4047045715878607e+01 9.9484732337570083e+00 1.6880100229665235e+01 -2 -2 0
1979 2 1 4.2380000000000001e-01 1.2731898291124866e+01 8.9818959806884404e+00 1.6932465824256951e+01 -2 -2 0
111 2 1 4.2380000000000001e-01 1.5985018309091830e+01 9.5476412503907291e+00 1.5274743583626412e+01 2 2 -1
109 1 2 -8.4760000000000002e-01 1.6017149423722945e+01 9.9222498929376002e+00 1.6201369620785876e+01 2 2 -1
693 2 1 4.2380000000000001e-01 1.4773991077643480e+01 4.3644013931554895e+00 1.8828916774142129e+01 1 2 -1